mkdir: cannot create directory `/tmp/lkwagner': File exists
----- GAMESS execution script -----
This job is running on host aldebaran.physics.ncsu.edu at Wed May 22 11:34:43 EDT 2002
Available scratch disk space (Kbyte units) at beginning of the job is
Filesystem           1k-blocks      Used Available Use% Mounted on
/dev/sda6             15968084  14737840   1230244  93% /
cp mno1i.inp /tmp/lkwagner/mno1i.F05
unset echo
setenv IRCDATA /tmp/lkwagner/mno1i.irc
setenv INPUT /tmp/lkwagner/mno1i.F05
setenv PUNCH /tmp/lkwagner/mno1i.pun
setenv AOINTS /tmp/lkwagner/mno1i.F08
setenv MOINTS /tmp/lkwagner/mno1i.F09
setenv DICTNRY /tmp/lkwagner/mno1i.F10
setenv DRTFILE /tmp/lkwagner/mno1i.F11
setenv CIVECTR /tmp/lkwagner/mno1i.F12
setenv CASINTS /tmp/lkwagner/mno1i.F13
setenv CIINTS /tmp/lkwagner/mno1i.F14
setenv WORK15 /tmp/lkwagner/mno1i.F15
setenv WORK16 /tmp/lkwagner/mno1i.F16
setenv CSFSAVE /tmp/lkwagner/mno1i.F17
setenv FOCKDER /tmp/lkwagner/mno1i.F18
setenv DASORT /tmp/lkwagner/mno1i.F20
setenv DFTINTS /tmp/lkwagner/mno1i.F21
setenv JKFILE /tmp/lkwagner/mno1i.F23
setenv ORDINT /tmp/lkwagner/mno1i.F24
setenv EFPIND /tmp/lkwagner/mno1i.F25
setenv PCMDATA /tmp/lkwagner/mno1i.F26
setenv PCMINTS /tmp/lkwagner/mno1i.F27
setenv DAFL30 /tmp/lkwagner/mno1i.F30
setenv SOCCDAT /tmp/lkwagner/mno1i.F40
setenv MCQD50 /tmp/lkwagner/mno1i.F50
setenv MCQD51 /tmp/lkwagner/mno1i.F51
setenv MCQD52 /tmp/lkwagner/mno1i.F52
setenv MCQD53 /tmp/lkwagner/mno1i.F53
setenv MCQD54 /tmp/lkwagner/mno1i.F54
setenv MCQD55 /tmp/lkwagner/mno1i.F55
setenv MCQD56 /tmp/lkwagner/mno1i.F56
setenv MCQD57 /tmp/lkwagner/mno1i.F57
setenv MCQD58 /tmp/lkwagner/mno1i.F58
setenv MCQD59 /tmp/lkwagner/mno1i.F59
setenv MCQD60 /tmp/lkwagner/mno1i.F60
setenv MCQD61 /tmp/lkwagner/mno1i.F61
setenv MCQD62 /tmp/lkwagner/mno1i.F62
setenv MCQD63 /tmp/lkwagner/mno1i.F63
setenv MCQD64 /tmp/lkwagner/mno1i.F64
unset echo
ddikick.x mno1i /usr/local/gamess gamess.00.x /tmp/lkwagner 1 aldebaran.physics.ncsu.edu
Initiating 1 processes to run job mno1i 
Executable gamess.00.x will be run from directory /usr/local/gamess 
Working scratch directory on each host will be /tmp/lkwagner 
Running gamess.00.x on aldebaran.physics.ncsu.edu as compute process 0 
Running gamess.00.x on aldebaran.physics.ncsu.edu as data server 1 
1         ******************************************************
          *            GAMESS VERSION = 26 OCT 2000 R3         *
          *             FROM IOWA STATE UNIVERSITY             *
          * M.W.SCHMIDT, K.K.BALDRIDGE, J.A.BOATZ, S.T.ELBERT, *
          *   M.S.GORDON, J.H.JENSEN, S.KOSEKI, N.MATSUNAGA,   *
          *          K.A.NGUYEN, S.J.SU, T.L.WINDUS,           *
          *       TOGETHER WITH M.DUPUIS, J.A.MONTGOMERY       *
          *         J.COMPUT.CHEM.  14, 1347-1363(1993)        *
          ******************* PC-UNIX VERSION ******************

 EXECUTION OF GAMESS BEGUN Wed May 22 11:34:43 2002

            ECHO OF THE FIRST FEW INPUT CARDS -
 INPUT CARD>!Yoon ECP on Titanium, Lester on Oxygen                                         
 INPUT CARD> $CONTRL SCFTYP=ROHF MULT=6 ICHARG=0  RUNTYP=ENERGY MAXIT=70 ECP=READ $END      
 INPUT CARD> $SYSTEM KDIAG=3 $END                                                           
 INPUT CARD> $SCF DIRSCF=.T. RSTRCT=.F. SOSCF=.F.  $END                                     
 INPUT CARD> $GUESS GUESS=MOREAD NORDER=1 IORDER(8)=9,8 $END                                
 INPUT CARD> $DATA                                                                          
 INPUT CARD>                                                                                
 INPUT CARD>C1                                                                              
 INPUT CARD>MN 25. 0. 0. -.0675725099                                                       
 INPUT CARD>S 7 1.                                                                          
 INPUT CARD>  1      37.267155        0.39037801E-01                                        
 INPUT CARD>  2      23.295664       -0.25834960                                            
 INPUT CARD>  3      14.061365        0.76279390                                            
 INPUT CARD>  4      9.9303875       -0.24825741                                            
 INPUT CARD>  5      7.9979882       -0.61830252                                            
 INPUT CARD>  6      1.9205208        0.51014656                                            
 INPUT CARD>  7      1.0861154        0.38060132                                            
 INPUT CARD>S   1                                                                           
 INPUT CARD>  1        1.765983000          1.000000000                                     
 INPUT CARD>S   1                                                                           
 INPUT CARD>  1       0.7137740000          1.000000000                                     
 INPUT CARD>S 1 1.                                                                          
 INPUT CARD>  1       .25                   1.                                              
 INPUT CARD>S   1   1.                                                                      
 INPUT CARD>  1       .1                    1.                                              
 INPUT CARD>S   1   1.                                                                      
 INPUT CARD>  1       .04                   1.                                              
 INPUT CARD>P 7 1.                                                                          
 INPUT CARD>  1      50.453613        0.28731674E-02                                        
 INPUT CARD>  2      20.993099       -0.32531628                                            
 INPUT CARD>  3      18.158922        0.53472191                                            
 INPUT CARD>  4      12.328713       -0.24152134                                            
 INPUT CARD>  5      4.5823927       -0.10436746                                            
 INPUT CARD>  6      3.3082843        0.41230637                                            
 INPUT CARD>  7      1.3713011        0.51765233                                            
 INPUT CARD>P   1 1.                                                                        
 INPUT CARD>  1        1.765983000          1.000000000      Process initiation completed. 
                               
 INPUT CARD>P   1 1.                                                                        
 INPUT CARD>  1       0.7137740000          1.000000000                                     
 INPUT CARD>P 1 1.                                                                          
 INPUT CARD>  1       .25                   1.                                              
 INPUT CARD>P   1   1.                                                                      
 INPUT CARD>  1       .1                   1.                                               
 INPUT CARD>P   1   1.                                                                      
 INPUT CARD>  1       .04                  1.                                               
 INPUT CARD>D 5 1.                                                                          
 INPUT CARD>  1      27.851509       -0.84132208E-02                                        
 INPUT CARD>  2      16.152140        0.85403956E-01                                        
 INPUT CARD>  3      5.6169748        0.21698587                                            
 INPUT CARD>  4      2.1590731        0.39649862                                            
    1000000 WORDS OF MEMORY AVAILABLE


     RUN TITLE
     ---------
                                                                                 

 THE POINT GROUP OF THE MOLECULE IS C1      
 THE ORDER OF THE PRINCIPAL AXIS IS     0
 *** WARNING! ATOM   1 SHELL    1 TYPE S HAS NORMALIZATION   1.50657422
 *** WARNING! ATOM   1 SHELL    7 TYPE P HAS NORMALIZATION   1.29763370
 *** WARNING! ATOM   1 SHELL   13 TYPE D HAS NORMALIZATION   1.10634848
 *** WARNING! ATOM   2 SHELL   17 TYPE S HAS NORMALIZATION   1.00004554
 *** WARNING! ATOM   2 SHELL   20 TYPE P HAS NORMALIZATION   1.00079698

 ATOM      ATOMIC                      COORDINATES (BOHR)
           CHARGE         X                   Y                   Z
 MN         25.0      .0000000000         .0000000000        -.1276935280
 O           8.0      .0000000000         .0000000000        3.1512551084

          INTERNUCLEAR DISTANCES (ANGS.)
          ------------------------------

                    MN             O         

  1  MN               .0000000      1.7351450 *  
  2  O               1.7351450 *     .0000000    

  * ... LESS THAN  3.000


     ATOMIC BASIS SET
     ----------------
 THE CONTRACTED PRIMITIVE FUNCTIONS HAVE BEEN UNNORMALIZED
 THE CONTRACTED BASIS FUNCTIONS ARE NOW NORMALIZED TO UNITY

 SHELL TYPE PRIMITIVE    EXPONENT          CONTRACTION COEFFICIENTS

 MN        

   1   S    1          37.2671550       .058813344487
   1   S    2          23.2956640      -.389222846410
   1   S    3          14.0613650      1.149205622855
   1   S    4           9.9303875      -.374018213160
   1   S    5           7.9979882      -.931518635125
   1   S    6           1.9205208       .768573654341
   1   S    7           1.0861154       .573404135783

   2   S    8           1.7659830      1.000000000000

   3   S    9            .7137740      1.000000000000

   4   S   10            .2500000      1.000000000000

   5   S   11            .1000000      1.000000000000

   6   S   12            .0400000      1.000000000000

   7   P   13          50.4536130       .003728318844
   7   P   14          20.9930990      -.422141368061
   7   P   15          18.1589220       .693873170502
   7   P   16          12.3287130      -.313406230034
   7   P   17           4.5823927      -.135430733271
   7   P   18           3.3082843       .535022640404
   7   P   19           1.3713011       .671723108250

   8   P   20           1.7659830      1.000000000000

   9   P   21            .7137740      1.000000000000

  10   P   22            .2500000      1.000000000000

  11   P   23            .1000000      1.000000000000

  12   P   24            .0400000      1.000000000000

  13   D   25          27.8515090      -.009307954069
  13   D   26          16.1521400       .094486537164
  13   D   27           5.6169748       .240061988110
  13   D   28           2.1590731       .438665646754
  13   D   29            .7704969       .479818778927

  14   D   30            .2700000      1.000000000000

  15   D   31            .0700000      1.000000000000

  16   F   32           1.8000000      1.000000000000

 O         

  17   S   33          19.4478130       .002383810957
  17   S   34          12.4209720       .014955485062
  17   S   35           6.1715364      -.176890355455
  17   S   36           4.0532336       .027787809436
  17   S   37           1.1199164       .399546255038
  17   S   38            .4325723       .565399407867
  17   S   39            .1598001       .157805786358

  18   S   40            .2950000      1.000000000000

  19   S   41            .0978000      1.000000000000

  20   P   42          62.8410070      -.000138254308
  20   P   43          24.3213840       .007623052892
  20   P   44           9.3865118       .070157309537
  20   P   45           3.2627614       .195674734915
  20   P   46           1.2486125       .353268043814
  20   P   47            .4673562       .417706359049
  20   P   48            .1602394       .210780474319

  21   P   49            .2400000      1.000000000000

  22   P   50            .0800000      1.000000000000

  23   D   51            .9800000      1.000000000000

 TOTAL NUMBER OF BASIS SET SHELLS             =   23
 NUMBER OF CARTESIAN GAUSSIAN BASIS FUNCTIONS =   70
 NUMBER OF ELECTRONS                          =   33
 CHARGE OF MOLECULE                           =    0
 SPIN MULTIPLICITY                            =    6
 NUMBER OF OCCUPIED ORBITALS (ALPHA)          =   19
 NUMBER OF OCCUPIED ORBITALS (BETA )          =   14
 TOTAL NUMBER OF ATOMS                        =    2
 THE NUCLEAR REPULSION ENERGY IS       60.9951610040
 NOTE THIS RUN IS USING CORE POTENTIALS, AND THE NUMBER OF ELECTRONS,
 OCCUPIED ORBITALS, AND NUCLEAR REPULSION ENERGY WILL BE ADJUSTED BELOW
 AFTER REMOVAL OF THE CORE CHARGES.

 THIS MOLECULE IS RECOGNIZED AS BEING LINEAR.

     $CONTRL OPTIONS
     ---------------
     SCFTYP=ROHF         RUNTYP=ENERGY       EXETYP=RUN     
     MPLEVL=       0     LOCAL =NONE         UNITS =ANGS    
     MULT  =       6     ICHARG=       0     MAXIT =      70
     NPRINT=       7     IREST =       0     COORD =UNIQUE  
     ECP   =READ         NORMF =       0     NORMP =       0
     ITOL  =      20     ICUT  =       9     NZVAR =       0
     NOSYM =       0     INTTYP=POPLE        GEOM  =INPUT   
     PLTORB=       F     MOLPLT=       F     RPAC  =       F
     AIMPAC=       F     FRIEND=             CITYP =NONE    
     ISPHER=      -1     QMTTOL= 1.0E-06     RELWFN=NONE    

     $SYSTEM OPTIONS
     ---------------
      REPLICATED MEMORY=     1000000 WORDS (ON EVERY NODE).
     DISTRIBUTED MEMDDI=           0 MILLION WORDS IN AGGREGATE,
     MEMDDI DISTRIBUTED OVER   1 PROCESSORS IS           0 WORDS/PROCESSOR.
     TOTAL MEMORY REQUESTED ON EACH PROCESSOR=     1000000 WORDS.
     TIMLIM=     36000.0 SECONDS.
     COREFL=F     KDIAG= 3

          --------------
          ECP POTENTIALS
          --------------

 PARAMETERS FOR "MN-ECP  " ON ATOM    1 WITH ZCORE  10 AND LMAX  2 ARE
 FOR L= 2      COEFF    N           ZETA
    1     6414.98369    2      138.28555
    2     4352.98345    2       81.91727
    3     4242.28523    2       17.73289
    4       -4.07742    2     7749.96944
    5    -2222.65038    2       16.38249
    6    -5461.95518    2       99.24065
    7     7265.55593    2       30.92659
    8    -4470.82724    2      147.01450
    9    -5812.86306    2       23.50118
   10    -4381.78680    2       40.16809
   11       15.00000    1       18.00000
 FOR L= 0      COEFF    N           ZETA
    1   -12638.26250    2       13.28682
    2    27155.59300    2       24.41091
    3   -46214.12020    2       21.20412
    4    20923.39380    2       27.78107
    5     1654.36426    2       10.95239
    6   -20006.19600    2       34.23045
    7     4712.00229    2       51.29103
    8    25417.51920    2       15.60399
    9    12187.55300    2       88.85601
   10   -13133.51660    2       87.61747
 FOR L= 1      COEFF    N           ZETA
    1   -11900.95540    2       17.43082
    2     1771.78434    2        6.78675
    3     6798.65983    2       13.19288
    4     -661.34705    2        6.03485
    5     5324.30064    2       21.47355
    6    -1131.64204    2       54.62200
    7    -2628.40227    2        8.65019
    8    -5330.83041    2       34.17469
    9     4587.11743    2       24.72336
   10     3209.86996    2       46.29155

 PARAMETERS FOR "O-LES   " ON ATOM    2 WITH ZCORE   2 AND LMAX  1 ARE
 FOR L= 1      COEFF    N           ZETA
    1      -33.78808    2       15.21685
    2       -3.39404    2      128.50999
    3       -7.80349    2       38.17253
    4       -1.77250    2      540.59047
    5        3.92317    2        8.69743
    6        -.93913    2     3211.15414
    7        6.00000    1       15.00000
 FOR L= 0      COEFF    N           ZETA
    1       29.11024    2       10.04485
    2       47.72885    2       10.23785
    3      -21.41039    2        8.77094

 THE ECP RUN REMOVES   12 CORE ELECTRONS, AND THE SAME NUMBER OF PROTONS.
 NUMBER OF ELECTRONS KEPT IN THE CALCULATION IS =   21
 NUMBER OF OCCUPIED ORBITALS (ALPHA) KEPT IS    =   13
 NUMBER OF OCCUPIED ORBITALS (BETA ) KEPT IS    =    8
 THE ADJUSTED NUCLEAR REPULSION ENERGY=       27.4478224518
          ECP ANGULAR INTS.........      .01 SECONDS

          ----------------
          PROPERTIES INPUT
          ----------------

     MOMENTS            FIELD           POTENTIAL          DENSITY
 IEMOM =       1   IEFLD =       0   IEPOT =       0   IEDEN =       0
 WHERE =COMASS     WHERE =NUCLEI     WHERE =NUCLEI     WHERE =NUCLEI  
 OUTPUT=BOTH       OUTPUT=BOTH       OUTPUT=BOTH       OUTPUT=BOTH    
 IEMINT=       0   IEFINT=       0                     IEDINT=       0
                                                       MORB  =       0
          EXTRAPOLATION IN EFFECT
          DIIS IN EFFECT

     -------------------------------
     INTEGRAL TRANSFORMATION OPTIONS
     -------------------------------
     NWORD  =       0     CUTOFF = 1.0E-09
     MPTRAN =       0     DIRTRF =       T
     AOINTS =DUP     

          ----------------------
          INTEGRAL INPUT OPTIONS
          ----------------------
 NOPK  =       1 NORDER=       0 SCHWRZ=       T

     ------------------------------------------
     THE POINT GROUP IS C1 , NAXIS= 0, ORDER= 1
     ------------------------------------------

     DIMENSIONS OF THE SYMMETRY SUBSPACES ARE
 A   =   70

 ..... DONE SETTING UP THE RUN .....
 STEP CPU TIME =      .21 TOTAL CPU TIME =         .2 (     .0 MIN)
 TOTAL WALL CLOCK TIME=         .3 SECONDS, CPU UTILIZATION IS  80.77%

          ********************
          1 ELECTRON INTEGRALS
          ********************
 TIME TO DO ORDINARY INTEGRALS=       .01
 TIME TO DO      ECP INTEGRALS=       .08
 ...... END OF ONE-ELECTRON INTEGRALS ......
 STEP CPU TIME =      .09 TOTAL CPU TIME =         .3 (     .0 MIN)
 TOTAL WALL CLOCK TIME=         .3 SECONDS, CPU UTILIZATION IS  85.71%

          -------------
          GUESS OPTIONS
          -------------
          GUESS =MOREAD            NORB  =       0          NORDER=       1
          MIX   =       F          PRTMO =       F          PUNMO =       F
          TOLZ  = 1.0E-08          TOLE  = 1.0E-05
          SYMDEN=       F          PURIFY=       F

 INITIAL GUESS ORBITALS GENERATED BY MOREAD   ROUTINE.

 SYMMETRIES FOR INITIAL GUESS ORBITALS FOLLOW.  ALPHA SET(S).
    13 ORBITALS ARE OCCUPIED (    4 CORE ORBITALS).
     5=A        6=A        7=A        8=A        9=A       10=A       11=A   
    12=A       13=A       14=A       15=A       16=A       17=A       18=A   
    19=A       20=A       21=A       22=A       23=A   

 SYMMETRIES FOR INITIAL GUESS ORBITALS FOLLOW.   BETA SET(S).
     8 ORBITALS ARE OCCUPIED (    4 CORE ORBITALS).
     5=A        6=A        7=A        8=A        9=A       10=A       11=A   
    12=A       13=A       14=A       15=A       16=A       17=A       18=A   
 ...... END OF INITIAL ORBITAL SELECTION ......
 STEP CPU TIME =      .05 TOTAL CPU TIME =         .3 (     .0 MIN)
 TOTAL WALL CLOCK TIME=         .4 SECONDS, CPU UTILIZATION IS  87.50%

          --------------------
          2 ELECTRON INTEGRALS
          --------------------

 DIRECT SCF METHOD SKIPS INTEGRAL STORAGE ON DISK.
 DIRECT TRANSFORMATION SKIPS AO INTEGRAL STORAGE ON DISK.
  ...... END OF TWO-ELECTRON INTEGRALS .....
 STEP CPU TIME =      .00 TOTAL CPU TIME =         .3 (     .0 MIN)
 TOTAL WALL CLOCK TIME=         .4 SECONDS, CPU UTILIZATION IS  87.50%

          --------------------
          ROHF SCF CALCULATION
          --------------------

     NUCLEAR ENERGY =        27.4478224518
     MAXIT = 70     NPUNCH=  2     MULT=  6
     EXTRAP=T  DAMP=F  SHIFT=F  RSTRCT=F  DIIS=T  SOSCF=F
     DENSITY CONV=  2.00E-05
     ROHF CANONICALIZATION PARAMETERS
             C-C     O-O     V-V
     ALPHA  -.5000   .5000  1.5000
     BETA   1.5000   .5000  -.5000
     MEMORY REQUIRED FOR UHF/ROHF STEP=     72757 WORDS.

 DIRECT SCF CALCULATION, SCHWRZ=T   FDIFF=T
 SCHWARZ INEQUALITY OVERHEAD:      2485 INTEGRALS, T=         .06

                                                                           NONZERO    BLOCKS
 ITER EX   TOTAL ENERGY      E CHANGE  DENSITY CHANGE    DIIS ERROR      INTEGRALS   SKIPPED
          * * *   INITIATING DIIS PROCEDURE   * * *
   1  0  -118.795133678  -118.795133678   1.493693402    .211446974         695431         0
   2  1  -113.278935056     5.516198623   1.422542348    .783062932         695431         0
   3  2  -118.846495963    -5.567560907    .330684248    .168469735         695431         0
   4  3  -118.962461549     -.115965587    .294266846    .061984477         695431         0
   5  4  -119.007121291     -.044659742    .153880816    .026954998         695431         0
   6  5  -119.016802068     -.009680777    .084628010    .027608964         695431         0
   7  6  -119.025555070     -.008753002    .227599501    .020824528         695431         0
   8  7  -119.021436375      .004118695    .357499435    .024503547         695431         0
   9  8  -119.030425384     -.008989009    .311981487    .009965926         695431         0
  10  9  -119.031243999     -.000818615    .139835731    .005141869         695431         0
  11 10  -119.031793954     -.000549955    .030990913    .002833792         695431         0
  12 11  -119.031864359     -.000070405    .054800117    .001411499         695431         0
  13 12  -119.031893117     -.000028758    .029825751    .001364478         695431         0
  14 13  -119.031929475     -.000036358    .013777409    .000427118         695431         0
  15 14  -119.031929604     -.000000129    .006869847    .000571388         695431         0
  16 15  -119.031933447     -.000003842    .002458823    .000191420         695422         1
  17 16  -119.031934292     -.000000845    .002716866    .000159614         695422         1
  18 17  -119.031934742     -.000000450    .001002452    .000033706         695431         0
  19 18  -119.031934761     -.000000019    .001455947    .000024958         695251         4
  20 19  -119.031934767     -.000000006    .001035749    .000036655         695217         8
  21 20  -119.031934798     -.000000030    .000173821    .000009387         694866        14
  22 21  -119.031934801     -.000000003    .000044014    .000004451         694153        26
  23 22  -119.031934801      .000000000    .000081192    .000002077         691607       114
  24 23  -119.031934801      .000000000    .000049209    .000002407         676160       842
  25 24  -119.031934802     -.000000001    .000014996    .000000642         672451       821
  26 25  -119.031934801      .000000001    .000006626    .000000416         661367      1025

          -----------------
          DENSITY CONVERGED
          -----------------

 FINAL ENERGY IS     -119.0319348009 AFTER  26 ITERATIONS

          --------------------
          SPIN SZ   =    2.500
          S-SQUARED =    8.750
          --------------------

          ------------
          EIGENVECTORS
          ------------

                      1          2          3          4          5
                   -3.4868    -2.0282    -2.0158    -2.0158    -1.0719
                     A          A          A          A          A   
    1  MN  1  S    .657651    .023646    .000000    .000000   -.049462
    2  MN  1  S   -.017489    .003338    .000000    .000000   -.008226
    3  MN  1  S    .306336    .005946    .000000    .000000   -.056085
    4  MN  1  S    .089230   -.005647    .000000    .000000    .045160
    5  MN  1  S    .011820   -.023663    .000000    .000000   -.014025
    6  MN  1  S    .005557    .016160    .000000    .000000    .014374
    7  MN  1  X    .000000    .000000    .593294   -.495320    .000000
    8  MN  1  Y    .000000    .000000    .495320    .593294    .000000
    9  MN  1  Z   -.027172    .766764    .000000    .000000   -.113040
   10  MN  1  X    .000000    .000000   -.016738    .013974    .000000
   11  MN  1  Y    .000000    .000000   -.013974   -.016738    .000000
   12  MN  1  Z    .002439   -.022384    .000000    .000000   -.004649
   13  MN  1  X    .000000    .000000    .207930   -.173593    .000000
   14  MN  1  Y    .000000    .000000    .173593    .207930    .000000
   15  MN  1  Z   -.012817    .264881    .000000    .000000   -.041796
   16  MN  1  X    .000000    .000000    .057799   -.048254    .000000
   17  MN  1  Y    .000000    .000000    .048254    .057799    .000000
   18  MN  1  Z   -.004483    .082323    .000000    .000000    .031195
   19  MN  1  X    .000000    .000000   -.014028    .011711    .000000
   20  MN  1  Y    .000000    .000000   -.011711   -.014028    .000000
   21  MN  1  Z    .001026   -.037039    .000000    .000000   -.021497
   22  MN  1  X    .000000    .000000    .004614   -.003852    .000000
   23  MN  1  Y    .000000    .000000    .003852    .004614    .000000
   24  MN  1  Z   -.000590    .002852    .000000    .000000   -.012997
   25  MN  1 XX    .000724    .008128    .000000    .000000   -.030744
   26  MN  1 YY    .000724    .008128    .000000    .000000   -.030744
   27  MN  1 ZZ   -.002113   -.016073    .000000    .000000    .059040
   28  MN  1 XY    .000000    .000000    .000000    .000000    .000000
   29  MN  1 XZ    .000000    .000000   -.012205    .010190    .000000
   30  MN  1 YZ    .000000    .000000   -.010190   -.012205    .000000
   31  MN  1 XX   -.015013    .003047    .000000    .000000   -.012396
   32  MN  1 YY   -.015013    .003047    .000000    .000000   -.012396
   33  MN  1 ZZ   -.016772    .002082    .000000    .000000    .029679
   34  MN  1 XY    .000000    .000000    .000000    .000000    .000000
   35  MN  1 XZ    .000000    .000000   -.003830    .003197    .000000
   36  MN  1 YZ    .000000    .000000   -.003197   -.003830    .000000
   37  MN  1 XX   -.002434   -.003975    .000000    .000000   -.004105
   38  MN  1 YY   -.002434   -.003975    .000000    .000000   -.004105
   39  MN  1 ZZ   -.002808   -.013350    .000000    .000000   -.027385
   40  MN  1 XY    .000000    .000000    .000000    .000000    .000000
   41  MN  1 XZ    .000000    .000000    .000094   -.000078    .000000
   42  MN  1 YZ    .000000    .000000    .000078    .000094    .000000
   43  MN   XXX    .000000    .000000   -.008781    .007331    .000000
   44  MN   YYY    .000000    .000000   -.007331   -.008781    .000000
   45  MN   ZZZ   -.000597   -.011426    .000000    .000000    .006484
   46  MN   XXY    .000000    .000000   -.003278   -.003927    .000000
   47  MN   XXZ   -.000230   -.004948    .000000    .000000   -.001203
   48  MN   YYX    .000000    .000000   -.003927    .003278    .000000
   49  MN   YYZ   -.000230   -.004948    .000000    .000000   -.001203
   50  MN   ZZX    .000000    .000000   -.004157    .003471    .000000
   51  MN   ZZY    .000000    .000000   -.003471   -.004157    .000000
   52  MN   XYZ    .000000    .000000    .000000    .000000    .000000
   53  O   2  S    .006560    .061789    .000000    .000000    .919749
   54  O   2  S   -.000256   -.015065    .000000    .000000   -.015875
   55  O   2  S    .000160    .033911    .000000    .000000    .103715
   56  O   2  X    .000000    .000000    .006767   -.005650    .000000
   57  O   2  Y    .000000    .000000    .005650    .006767    .000000
   58  O   2  Z   -.005727   -.037072    .000000    .000000   -.053119
   59  O   2  X    .000000    .000000    .000125   -.000104    .000000
   60  O   2  Y    .000000    .000000    .000104    .000125    .000000
   61  O   2  Z   -.000380    .004523    .000000    .000000   -.005713
   62  O   2  X    .000000    .000000    .000786   -.000656    .000000
   63  O   2  Y    .000000    .000000    .000656    .000786    .000000
   64  O   2  Z    .000522   -.010115    .000000    .000000   -.008230
   65  O   2 XX   -.000128   -.000580    .000000    .000000    .002032
   66  O   2 YY   -.000128   -.000580    .000000    .000000    .002032
   67  O   2 ZZ    .001112    .006945    .000000    .000000    .013923
   68  O   2 XY    .000000    .000000    .000000    .000000    .000000
   69  O   2 XZ    .000000    .000000   -.000770    .000643    .000000
   70  O   2 YZ    .000000    .000000   -.000643   -.000770    .000000

                      6          7          8          9         10
                    -.3272     -.3272     -.3235     -.1539     -.1539
                     A          A          A          A          A   
    1  MN  1  S    .000000    .000000    .118441    .000000    .000000
    2  MN  1  S    .000000    .000000    .028287    .000000    .000000
    3  MN  1  S    .000000    .000000    .156796    .000000    .000000
    4  MN  1  S    .000000    .000000   -.075538    .000000    .000000
    5  MN  1  S    .000000    .000000   -.333110    .000001    .000000
    6  MN  1  S    .000000    .000000   -.019071   -.000001    .000000
    7  MN  1  X   -.042480    .042412    .000000    .000000    .000000
    8  MN  1  Y   -.042411   -.042480    .000000    .000000    .000000
    9  MN  1  Z    .000000    .000000    .081917    .000000    .000000
   10  MN  1  X   -.004339    .004332    .000000    .000000    .000000
   11  MN  1  Y   -.004332   -.004339    .000000    .000000    .000000
   12  MN  1  Z    .000000    .000000    .008678    .000000    .000000
   13  MN  1  X   -.027197    .027153    .000000    .000000    .000000
   14  MN  1  Y   -.027153   -.027197    .000000    .000000    .000000
   15  MN  1  Z    .000000    .000000    .025363    .000000    .000000
   16  MN  1  X    .035809   -.035751    .000000    .000000    .000000
   17  MN  1  Y    .035751    .035809    .000000    .000000    .000000
   18  MN  1  Z    .000000    .000000   -.054883    .000000    .000000
   19  MN  1  X    .060499   -.060402    .000000    .000000    .000000
   20  MN  1  Y    .060402    .060499    .000000    .000000    .000000
   21  MN  1  Z    .000000    .000000    .001139    .000000    .000000
   22  MN  1  X    .023519   -.023481    .000000    .000000    .000000
   23  MN  1  Y    .023481    .023519    .000000    .000000    .000000
   24  MN  1  Z    .000000    .000000    .020811    .000000    .000000
   25  MN  1 XX    .000000    .000000    .104640    .000000    .773575
   26  MN  1 YY    .000000    .000000    .104640    .000000   -.773575
   27  MN  1 ZZ    .000000    .000000   -.201656    .000000    .000000
   28  MN  1 XY    .000000    .000000    .000000    .893247    .000000
   29  MN  1 XZ    .088580   -.088438    .000000    .000000    .000000
   30  MN  1 YZ    .088438    .088580    .000000    .000000    .000000
   31  MN  1 XX    .000000    .000000    .028043    .000000    .180794
   32  MN  1 YY    .000000    .000000    .028043    .000000   -.180794
   33  MN  1 ZZ    .000000    .000000   -.103037    .000000    .000000
   34  MN  1 XY    .000000    .000000    .000000    .208762    .000000
   35  MN  1 XZ    .056223   -.056133    .000000    .000000    .000000
   36  MN  1 YZ    .056133    .056223    .000000    .000000    .000000
   37  MN  1 XX    .000000    .000000   -.028688    .000000    .021581
   38  MN  1 YY    .000000    .000000   -.028688    .000000   -.021581
   39  MN  1 ZZ    .000000    .000000   -.013272    .000000    .000000
   40  MN  1 XY    .000000    .000000    .000000    .024919    .000000
   41  MN  1 XZ    .018608   -.018579    .000000    .000000    .000000
   42  MN  1 YZ    .018579    .018608    .000000    .000000    .000000
   43  MN   XXX    .001500   -.001498    .000000    .000000    .000000
   44  MN   YYY    .001498    .001500    .000000    .000000    .000000
   45  MN   ZZZ    .000000    .000000   -.005846    .000000    .000000
   46  MN   XXY    .000670    .000671    .000000    .000000    .000000
   47  MN   XXZ    .000000    .000000    .002280    .000000   -.003909
   48  MN   YYX    .000671   -.000670    .000000    .000000    .000000
   49  MN   YYZ    .000000    .000000    .002280    .000000    .003909
   50  MN   ZZX    .004176   -.004169    .000000    .000000    .000000
   51  MN   ZZY    .004169    .004176    .000000    .000000    .000000
   52  MN   XYZ    .000000    .000000    .000000   -.004514    .000000
   53  O   2  S    .000000    .000000    .174369    .000000    .000000
   54  O   2  S    .000000    .000000    .053310    .000000    .000000
   55  O   2  S    .000000    .000000    .105710    .000000    .000000
   56  O   2  X    .581667   -.580735    .000000    .000000    .000000
   57  O   2  Y    .580735    .581667    .000000    .000000    .000000
   58  O   2  Z    .000000    .000000    .743453    .000000    .000000
   59  O   2  X    .048562   -.048484    .000000    .000000    .000000
   60  O   2  Y    .048484    .048562    .000000    .000000    .000000
   61  O   2  Z    .000000    .000000    .015741    .000000    .000000
   62  O   2  X    .036911   -.036851    .000000    .000000    .000000
   63  O   2  Y    .036851    .036911    .000000    .000000    .000000
   64  O   2  Z    .000000    .000000    .027924    .000000    .000000
   65  O   2 XX    .000000    .000000    .005173    .000000    .001398
   66  O   2 YY    .000000    .000000    .005173    .000000   -.001398
   67  O   2 ZZ    .000000    .000000   -.024289    .000000    .000000
   68  O   2 XY    .000000    .000000    .000000    .001614    .000000
   69  O   2 XZ   -.015024    .015000    .000000    .000000    .000000
   70  O   2 YZ   -.015000   -.015024    .000000    .000000    .000000

                     11         12         13         14         15
                    -.1339     -.1303     -.1303     -.0666      .0301
                     A          A          A          A          A   
    1  MN  1  S    .095469    .000000    .000000   -.064968    .000000
    2  MN  1  S    .033783    .000000    .000000   -.012799    .000000
    3  MN  1  S    .113462    .000000    .000000   -.106758    .000000
    4  MN  1  S   -.100619    .000000    .000000   -.045661    .000000
    5  MN  1  S   -.255120    .000000    .000000   -.156689    .000000
    6  MN  1  S    .001447    .000000    .000000   1.459554    .000000
    7  MN  1  X    .000000    .041893   -.041570    .000000   -.058989
    8  MN  1  Y    .000000    .041570    .041893    .000000   -.058867
    9  MN  1  Z    .045551    .000000    .000000    .140909    .000000
   10  MN  1  X    .000000    .006864   -.006811    .000000   -.013166
   11  MN  1  Y    .000000    .006811    .006864    .000000   -.013138
   12  MN  1  Z    .006665    .000000    .000000    .023111    .000000
   13  MN  1  X    .000000    .013179   -.013077    .000000   -.059255
   14  MN  1  Y    .000000    .013077    .013179    .000000   -.059132
   15  MN  1  Z    .003849    .000000    .000000    .068053    .000000
   16  MN  1  X    .000000   -.046121    .045765    .000000    .109418
   17  MN  1  Y    .000000   -.045765   -.046121    .000000    .109190
   18  MN  1  Z   -.013072    .000000    .000000   -.123043    .000000
   19  MN  1  X    .000000   -.036236    .035955    .000000    .009706
   20  MN  1  Y    .000000   -.035956   -.036236    .000000    .009685
   21  MN  1  Z    .018374    .000000    .000000   -.237968    .000000
   22  MN  1  X    .000000   -.006127    .006080    .000000    .680483
   23  MN  1  Y    .000000   -.006080   -.006128    .000000    .679066
   24  MN  1  Z    .026586    .000000    .000000   -.309561    .000000
   25  MN  1 XX   -.406729    .000000    .000000   -.095170    .000000
   26  MN  1 YY   -.406729    .000000    .000000   -.095170    .000000
   27  MN  1 ZZ    .821667    .000000    .000000    .184874    .000000
   28  MN  1 XY    .000000    .000000    .000000    .000000    .000000
   29  MN  1 XZ    .000000    .630763   -.625886    .000000    .096023
   30  MN  1 YZ    .000000    .625886    .630763    .000000    .095823
   31  MN  1 XX   -.112412    .000000    .000000   -.025924    .000000
   32  MN  1 YY   -.112412    .000000    .000000   -.025924    .000000
   33  MN  1 ZZ    .206493    .000000    .000000   -.000514    .000000
   34  MN  1 XY    .000000    .000000    .000000    .000000    .000000
   35  MN  1 XZ    .000000    .135953   -.134902    .000000   -.002825
   36  MN  1 YZ    .000000    .134902    .135953    .000000   -.002819
   37  MN  1 XX   -.038610    .000000    .000000   -.271604    .000000
   38  MN  1 YY   -.038610    .000000    .000000   -.271604    .000000
   39  MN  1 ZZ    .041694    .000000    .000000   -.196862    .000000
   40  MN  1 XY    .000000    .000000    .000000    .000000    .000000
   41  MN  1 XZ    .000000    .019826   -.019673    .000000   -.163271
   42  MN  1 YZ    .000000    .019673    .019826    .000000   -.162931
   43  MN   XXX    .000000    .000394   -.000391    .000000    .011327
   44  MN   YYY    .000000    .000391    .000394    .000000    .011304
   45  MN   ZZZ   -.007553    .000000    .000000   -.011807    .000000
   46  MN   XXY    .000000    .000175    .000176    .000000    .005055
   47  MN   XXZ    .004069    .000000    .000000   -.003237    .000000
   48  MN   YYX    .000000    .000176   -.000175    .000000    .005066
   49  MN   YYZ    .004069    .000000    .000000   -.003237    .000000
   50  MN   ZZX    .000000   -.006109    .006061    .000000    .001896
   51  MN   ZZY    .000000   -.006061   -.006109    .000000    .001892
   52  MN   XYZ    .000000    .000000    .000000    .000000    .000000
   53  O   2  S   -.025542    .000000    .000000   -.037779    .000000
   54  O   2  S   -.046499    .000000    .000000   -.008474    .000000
   55  O   2  S   -.044574    .000000    .000000    .069356    .000000
   56  O   2  X    .000000   -.129458    .128457    .000000   -.138859
   57  O   2  Y    .000000   -.128457   -.129457    .000000   -.138570
   58  O   2  Z    .085891    .000000    .000000    .343692    .000000
   59  O   2  X    .000000   -.025826    .025626    .000000    .005695
   60  O   2  Y    .000000   -.025626   -.025826    .000000    .005683
   61  O   2  Z    .058810    .000000    .000000    .021934    .000000
   62  O   2  X    .000000   -.025356    .025160    .000000   -.110454
   63  O   2  Y    .000000   -.025160   -.025356    .000000   -.110224
   64  O   2  Z    .002441    .000000    .000000    .056464    .000000
   65  O   2 XX   -.002241    .000000    .000000    .001243    .000000
   66  O   2 YY   -.002241    .000000    .000000    .001243    .000000
   67  O   2 ZZ    .001333    .000000    .000000   -.004185    .000000
   68  O   2 XY    .000000    .000000    .000000    .000000    .000000
   69  O   2 XZ    .000000   -.000364    .000361    .000000   -.000198
   70  O   2 YZ    .000000   -.000361   -.000364    .000000   -.000198

                     16         17         18         19         20
                     .0301      .0682      .0903      .1810      .1810
                     A          A          A          A          A   
    1  MN  1  S    .000000    .083736   -.024249    .000000    .000000
    2  MN  1  S    .000000    .047609   -.000013    .000000    .000000
    3  MN  1  S    .000000   -.078814   -.072055    .000000    .000000
    4  MN  1  S    .000000   -.102662    .004982    .000000    .000000
    5  MN  1  S    .000000  -4.993219  -1.445102    .000000    .000000
    6  MN  1  S    .000000   9.324694   2.717051    .000000    .000000
    7  MN  1  X    .058867    .000000    .000000    .116847    .116059
    8  MN  1  Y   -.058989    .000000    .000000   -.116059    .116847
    9  MN  1  Z    .000000   -.083936    .035720    .000000    .000000
   10  MN  1  X    .013138    .000000    .000000    .006200    .006158
   11  MN  1  Y   -.013166    .000000    .000000   -.006158    .006200
   12  MN  1  Z    .000000   -.012142   -.003868    .000000    .000000
   13  MN  1  X    .059132    .000000    .000000   -.061862   -.061445
   14  MN  1  Y   -.059255    .000000    .000000    .061445   -.061862
   15  MN  1  Z    .000000   -.027840   -.090592    .000000    .000000
   16  MN  1  X   -.109190    .000000    .000000    .185743    .184490
   17  MN  1  Y    .109418    .000000    .000000   -.184490    .185743
   18  MN  1  Z    .000000    .041068    .214862    .000000    .000000
   19  MN  1  X   -.009685    .000000    .000000  -1.059467  -1.052322
   20  MN  1  Y    .009706    .000000    .000000   1.052322  -1.059467
   21  MN  1  Z    .000000    .095488   -.916044    .000000    .000000
   22  MN  1  X   -.679066    .000000    .000000   1.145728   1.138002
   23  MN  1  Y    .680483    .000000    .000000  -1.138002   1.145728
   24  MN  1  Z    .000000   -.676378   1.207453    .000000    .000000
   25  MN  1 XX    .000000    .034328   -.094224    .000000    .000000
   26  MN  1 YY    .000000    .034328   -.094224    .000000    .000000
   27  MN  1 ZZ    .000000   -.061497    .186202    .000000    .000000
   28  MN  1 XY    .000000    .000000    .000000    .000000    .000000
   29  MN  1 XZ   -.095824    .000000    .000000   -.090646   -.090035
   30  MN  1 YZ    .096023    .000000    .000000    .090035   -.090646
   31  MN  1 XX    .000000   -.190875   -.027450    .000000    .000000
   32  MN  1 YY    .000000   -.190875   -.027450    .000000    .000000
   33  MN  1 ZZ    .000000   -.207213   -.020597    .000000    .000000
   34  MN  1 XY    .000000    .000000    .000000    .000000    .000000
   35  MN  1 XZ    .002819    .000000    .000000   -.002941   -.002921
   36  MN  1 YZ   -.002825    .000000    .000000    .002921   -.002941
   37  MN  1 XX    .000000  -2.442725   -.439156    .000000    .000000
   38  MN  1 YY    .000000  -2.442725   -.439156    .000000    .000000
   39  MN  1 ZZ    .000000  -2.854293  -1.190569    .000000    .000000
   40  MN  1 XY    .000000    .000000    .000000    .000000    .000000
   41  MN  1 XZ    .162931    .000000    .000000    .518556    .515059
   42  MN  1 YZ   -.163271    .000000    .000000   -.515059    .518555
   43  MN   XXX   -.011304    .000000    .000000    .014532    .014434
   44  MN   YYY    .011327    .000000    .000000   -.014434    .014532
   45  MN   ZZZ    .000000    .003297    .015362    .000000    .000000
   46  MN   XXY    .005066    .000000    .000000   -.006455    .006499
   47  MN   XXZ    .000000    .001093    .009818    .000000    .000000
   48  MN   YYX   -.005055    .000000    .000000    .006499    .006455
   49  MN   YYZ    .000000    .001093    .009818    .000000    .000000
   50  MN   ZZX   -.001892    .000000    .000000    .008182    .008126
   51  MN   ZZY    .001895    .000000    .000000   -.008126    .008182
   52  MN   XYZ    .000000    .000000    .000000    .000000    .000000
   53  O   2  S    .000000    .051521   -.138774    .000000    .000000
   54  O   2  S    .000000   -.156239    .053868    .000000    .000000
   55  O   2  S    .000000   1.075409    .363003    .000000    .000000
   56  O   2  X    .138570    .000000    .000000    .016346    .016236
   57  O   2  Y   -.138859    .000000    .000000   -.016236    .016346
   58  O   2  Z    .000000   -.135241    .127459    .000000    .000000
   59  O   2  X   -.005683    .000000    .000000    .056373    .055993
   60  O   2  Y    .005695    .000000    .000000   -.055993    .056373
   61  O   2  Z    .000000   -.006552    .026122    .000000    .000000
   62  O   2  X    .110224    .000000    .000000   -.404953   -.402223
   63  O   2  Y   -.110454    .000000    .000000    .402223   -.404953
   64  O   2  Z    .000000   -.376106   -.337346    .000000    .000000
   65  O   2 XX    .000000    .000153    .002296    .000000    .000000
   66  O   2 YY    .000000    .000153    .002296    .000000    .000000
   67  O   2 ZZ    .000000    .004594   -.009556    .000000    .000000
   68  O   2 XY    .000000    .000000    .000000    .000000    .000000
   69  O   2 XZ    .000198    .000000    .000000    .004147    .004119
   70  O   2 YZ   -.000198    .000000    .000000   -.004119    .004147

                     21         22         23         24         25
                     .1878      .1878      .1933      .2425      .2425
                     A          A          A          A          A   
    1  MN  1  S    .000000    .000000    .000841    .000000    .000000
    2  MN  1  S    .000000    .000000   -.024076    .000000    .000000
    3  MN  1  S    .000000    .000000    .227874    .000000    .000000
    4  MN  1  S    .000000    .000000    .364401    .000000    .000000
    5  MN  1  S   -.000001    .000000  -2.201056    .000000    .000000
    6  MN  1  S   -.000002    .000000  -2.771345    .000000    .000000
    7  MN  1  X    .000000    .000000    .000000   -.091661    .091566
    8  MN  1  Y    .000000    .000000    .000000   -.091566   -.091661
    9  MN  1  Z    .000000    .000000    .008104    .000000    .000000
   10  MN  1  X    .000000    .000000    .000000   -.010731    .010720
   11  MN  1  Y    .000000    .000000    .000000   -.010720   -.010731
   12  MN  1  Z    .000000    .000000   -.001254    .000000    .000000
   13  MN  1  X    .000000    .000000    .000000    .009924   -.009913
   14  MN  1  Y    .000000    .000000    .000000    .009913    .009924
   15  MN  1  Z    .000000    .000000   -.024489    .000000    .000000
   16  MN  1  X    .000000    .000000    .000000   -.054839    .054782
   17  MN  1  Y    .000000    .000000    .000000   -.054782   -.054839
   18  MN  1  Z    .000000    .000000    .071084    .000000    .000000
   19  MN  1  X    .000000    .000000    .000000    .806853   -.806014
   20  MN  1  Y    .000000    .000000    .000000    .806014    .806853
   21  MN  1  Z   -.000001    .000000  -1.490931    .000000    .000000
   22  MN  1  X    .000000    .000000    .000000   -.087837    .087746
   23  MN  1  Y    .000000    .000000    .000000   -.087746   -.087837
   24  MN  1  Z   -.000001    .000000  -1.436564    .000000    .000000
   25  MN  1 XX    .000000   -.141794   -.066300    .000000    .000000
   26  MN  1 YY    .000000    .141794   -.066300    .000000    .000000
   27  MN  1 ZZ    .000000    .000000    .133319    .000000    .000000
   28  MN  1 XY   -.163730    .000000    .000000    .000000    .000000
   29  MN  1 XZ    .000000    .000000    .000000   -.019039    .019019
   30  MN  1 YZ    .000000    .000000    .000000   -.019019   -.019039
   31  MN  1 XX    .000000   -.048882    .270446    .000000    .000000
   32  MN  1 YY    .000000    .048882    .270446    .000000    .000000
   33  MN  1 ZZ    .000000    .000000    .194506    .000000    .000000
   34  MN  1 XY   -.056444    .000000    .000000    .000000    .000000
   35  MN  1 XZ    .000000    .000000    .000000   -.069317    .069245
   36  MN  1 YZ    .000000    .000000    .000000   -.069245   -.069317
   37  MN  1 XX    .000001    .883677   1.282559    .000000    .000000
   38  MN  1 YY    .000001   -.883677   1.282559    .000000    .000000
   39  MN  1 ZZ   -.000001    .000000  -1.414525    .000000    .000000
   40  MN  1 XY   1.020383    .000000   -.000001    .000000    .000000
   41  MN  1 XZ    .000000    .000000    .000000    .950360   -.949372
   42  MN  1 YZ    .000000    .000000    .000000    .949372    .950360
   43  MN   XXX    .000000    .000000    .000000   -.001418    .001416
   44  MN   YYY    .000000    .000000    .000000   -.001416   -.001418
   45  MN   ZZZ    .000000    .000000    .005722    .000000    .000000
   46  MN   XXY    .000000    .000000    .000000   -.000633   -.000634
   47  MN   XXZ    .000000   -.000293    .001447    .000000    .000000
   48  MN   YYX    .000000    .000000    .000000   -.000634    .000633
   49  MN   YYZ    .000000    .000293    .001447    .000000    .000000
   50  MN   ZZX    .000000    .000000    .000000   -.006468    .006461
   51  MN   ZZY    .000000    .000000    .000000   -.006461   -.006468
   52  MN   XYZ   -.000339    .000000    .000000    .000000    .000000
   53  O   2  S    .000000    .000000    .107976    .000000    .000000
   54  O   2  S    .000000    .000000   -.252451    .000000    .000000
   55  O   2  S    .000002    .000000   4.431142    .000000    .000000
   56  O   2  X    .000000    .000000    .000000   -.177577    .177393
   57  O   2  Y    .000000    .000000    .000000   -.177393   -.177578
   58  O   2  Z    .000000    .000000    .156393    .000000    .000000
   59  O   2  X    .000000    .000000    .000000   -.129182    .129048
   60  O   2  Y    .000000    .000000    .000000   -.129048   -.129182
   61  O   2  Z    .000000    .000000   -.178312    .000000    .000000
   62  O   2  X    .000000    .000000    .000000   -.538515    .537955
   63  O   2  Y    .000000    .000000    .000000   -.537955   -.538515
   64  O   2  Z    .000000    .000000   -.858018    .000000    .000000
   65  O   2 XX    .000000    .004118   -.000446    .000000    .000000
   66  O   2 YY    .000000   -.004118   -.000446    .000000    .000000
   67  O   2 ZZ    .000000    .000000    .003594    .000000    .000000
   68  O   2 XY    .004755    .000000    .000000    .000000    .000000
   69  O   2 XZ    .000000    .000000    .000000   -.001300    .001299
   70  O   2 YZ    .000000    .000000    .000000   -.001299   -.001300

                     26         27         28         29         30
                     .2821      .3245      .3734      .3734      .4106
                     A          A          A          A          A   
    1  MN  1  S   -.071629   -.054777    .000000    .000000   -.085430
    2  MN  1  S    .029480    .024814    .000000    .000000   -.018181
    3  MN  1  S   -.574493   -.467217    .000000    .000000   -.207606
    4  MN  1  S   -.397203   -.611748    .000000    .000000   -.394813
    5  MN  1  S  -5.376998   4.727880    .000000    .000000    .003480
    6  MN  1  S  11.809517    .537928    .000000    .000000   3.330527
    7  MN  1  X    .000000    .000000    .018286   -.018245    .000000
    8  MN  1  Y    .000000    .000000    .018245    .018286    .000000
    9  MN  1  Z    .122073   -.065732    .000000    .000000   -.049630
   10  MN  1  X    .000000    .000000   -.000451    .000450    .000000
   11  MN  1  Y    .000000    .000000   -.000450   -.000451    .000000
   12  MN  1  Z    .010749    .003940    .000000    .000000    .012189
   13  MN  1  X    .000000    .000000   -.031883    .031811    .000000
   14  MN  1  Y    .000000    .000000   -.031811   -.031883    .000000
   15  MN  1  Z   -.049271    .199731    .000000    .000000    .152467
   16  MN  1  X    .000000    .000000    .072574   -.072408    .000000
   17  MN  1  Y    .000000    .000000    .072408    .072573    .000000
   18  MN  1  Z    .229312   -.577053    .000000    .000000   -.494324
   19  MN  1  X    .000000    .000000   -.462866    .461811    .000000
   20  MN  1  Y    .000000    .000000   -.461811   -.462865    .000000
   21  MN  1  Z  -2.688164   2.510575    .000000    .000000   2.037498
   22  MN  1  X    .000000    .000000   -.634175    .632731    .000000
   23  MN  1  Y    .000000    .000000   -.632731   -.634175    .000000
   24  MN  1  Z    .097568  -1.408396    .000000    .000000   -.242936
   25  MN  1 XX    .030390   -.075260    .000000    .000000   -.116369
   26  MN  1 YY    .030390   -.075260    .000000    .000000   -.116369
   27  MN  1 ZZ   -.068705    .144714    .000000    .000000    .224378
   28  MN  1 XY    .000000    .000000    .000000    .000000    .000000
   29  MN  1 XZ    .000000    .000000    .029242   -.029176    .000000
   30  MN  1 YZ    .000000    .000000    .029176    .029242    .000000
   31  MN  1 XX   -.479988   -.424465    .000000    .000000   -.089547
   32  MN  1 YY   -.479988   -.424465    .000000    .000000   -.089547
   33  MN  1 ZZ   -.482737   -.480187    .000000    .000000   -.077884
   34  MN  1 XY    .000000    .000000    .000000    .000000    .000000
   35  MN  1 XZ    .000000    .000000    .008046   -.008028    .000000
   36  MN  1 YZ    .000000    .000000    .008028    .008046    .000000
   37  MN  1 XX  -4.002690   -.407449    .000000    .000000  -1.534646
   38  MN  1 YY  -4.002690   -.407449    .000000    .000000  -1.534646
   39  MN  1 ZZ  -5.160282  -1.028923    .000000    .000000   -.111445
   40  MN  1 XY    .000000    .000000    .000000    .000000    .000000
   41  MN  1 XZ    .000000    .000000   -.721502    .719858    .000000
   42  MN  1 YZ    .000000    .000000   -.719858   -.721502    .000000
   43  MN   XXX    .000000    .000000    .006960   -.006944    .000000
   44  MN   YYY    .000000    .000000    .006944    .006960    .000000
   45  MN   ZZZ    .016775   -.036352    .000000    .000000   -.043818
   46  MN   XXY    .000000    .000000    .003106    .003113    .000000
   47  MN   XXZ    .002441   -.016572    .000000    .000000   -.005258
   48  MN   YYX    .000000    .000000    .003113   -.003106    .000000
   49  MN   YYZ    .002441   -.016572    .000000    .000000   -.005258
   50  MN   ZZX    .000000    .000000    .001967   -.001962    .000000
   51  MN   ZZY    .000000    .000000    .001962    .001967    .000000
   52  MN   XYZ    .000000    .000000    .000000    .000000    .000000
   53  O   2  S    .142884   -.149361    .000000    .000000   -.111096
   54  O   2  S   -.162709   -.092139    .000000    .000000   -.705682
   55  O   2  S   3.686560  -1.424217    .000000    .000000   -.877182
   56  O   2  X    .000000    .000000   -.158036    .157676    .000000
   57  O   2  Y    .000000    .000000   -.157676   -.158036    .000000
   58  O   2  Z    .023112   -.005378    .000000    .000000    .316914
   59  O   2  X    .000000    .000000   -.360289    .359468    .000000
   60  O   2  Y    .000000    .000000   -.359468   -.360289    .000000
   61  O   2  Z   -.050386   -.220563    .000000    .000000    .532099
   62  O   2  X    .000000    .000000   1.853788  -1.849565    .000000
   63  O   2  Y    .000000    .000000   1.849565   1.853788    .000000
   64  O   2  Z  -1.375767   2.671179    .000000    .000000   -.898545
   65  O   2 XX   -.005169   -.005225    .000000    .000000    .010464
   66  O   2 YY   -.005169   -.005225    .000000    .000000    .010464
   67  O   2 ZZ    .004562    .032337    .000000    .000000   -.000680
   68  O   2 XY    .000000    .000000    .000000    .000000    .000000
   69  O   2 XZ    .000000    .000000    .009797   -.009775    .000000
   70  O   2 YZ    .000000    .000000    .009775    .009797    .000000

                     31         32         33         34         35
                     .6186      .7614      .7614      .7883      .8781
                     A          A          A          A          A   
    1  MN  1  S   -.033713    .000000    .000000    .261431    .000000
    2  MN  1  S   -.068214    .000000    .000000    .292446    .000000
    3  MN  1  S    .432808    .000000    .000000  -1.309143    .000000
    4  MN  1  S    .977844    .000000    .000000  -2.824244    .000000
    5  MN  1  S  -8.252206    .000000    .000000   2.911013    .000000
    6  MN  1  S   -.115323    .000000    .000000   9.142266    .000000
    7  MN  1  X    .000000   -.098991    .098805    .000000    .000000
    8  MN  1  Y    .000000   -.098805   -.098991    .000000    .000000
    9  MN  1  Z    .043238    .000000    .000000   -.067355    .000000
   10  MN  1  X    .000000   -.079504    .079354    .000000    .000000
   11  MN  1  Y    .000000   -.079354   -.079504    .000000    .000000
   12  MN  1  Z    .009903    .000000    .000000   -.038199    .000000
   13  MN  1  X    .000000   -.700461    .699142    .000000    .000000
   14  MN  1  Y    .000000   -.699142   -.700461    .000000    .000000
   15  MN  1  Z    .061691    .000000    .000000   -.382576    .000000
   16  MN  1  X    .000000   1.900576  -1.896997    .000000    .000000
   17  MN  1  Y    .000000   1.896997   1.900576    .000000    .000000
   18  MN  1  Z   -.102924    .000000    .000000   1.119276    .000000
   19  MN  1  X    .000000  -1.841384   1.837916    .000000    .000000
   20  MN  1  Y    .000000  -1.837916  -1.841384    .000000    .000000
   21  MN  1  Z  -4.106148    .000000    .000000  -2.403875    .000000
   22  MN  1  X    .000000    .600539   -.599408    .000000    .000000
   23  MN  1  Y    .000000    .599408    .600539    .000000    .000000
   24  MN  1  Z  -1.053845    .000000    .000000   -.040193    .000000
   25  MN  1 XX    .068630    .000000    .000000   -.017085   -.543007
   26  MN  1 YY    .068630    .000000    .000000   -.017085    .543007
   27  MN  1 ZZ   -.140406    .000000    .000000    .061781    .000000
   28  MN  1 XY    .000000    .000000    .000000    .000000    .000000
   29  MN  1 XZ    .000000    .092021   -.091848    .000000    .000000
   30  MN  1 YZ    .000000    .091848    .092021    .000000    .000000
   31  MN  1 XX    .587582    .000000    .000000  -2.046197   1.066671
   32  MN  1 YY    .587582    .000000    .000000  -2.046197  -1.066671
   33  MN  1 ZZ    .457423    .000000    .000000  -2.324786    .000000
   34  MN  1 XY    .000000    .000000    .000000    .000000    .000000
   35  MN  1 XZ    .000000   -.148514    .148234    .000000    .000000
   36  MN  1 YZ    .000000   -.148234   -.148514    .000000    .000000
   37  MN  1 XX    .223721    .000000    .000000  -3.845568   -.457556
   38  MN  1 YY    .223721    .000000    .000000  -3.845568    .457556
   39  MN  1 ZZ  -1.968537    .000000    .000000  -4.553228    .000000
   40  MN  1 XY    .000000    .000000    .000000    .000000    .000000
   41  MN  1 XZ    .000000   -.056317    .056211    .000000    .000000
   42  MN  1 YZ    .000000   -.056211   -.056317    .000000    .000000
   43  MN   XXX    .000000    .127141   -.126902    .000000    .000000
   44  MN   YYY    .000000    .126902    .127141    .000000    .000000
   45  MN   ZZZ   -.008289    .000000    .000000    .061862    .000000
   46  MN   XXY    .000000    .056752    .056859    .000000    .000000
   47  MN   XXZ   -.005289    .000000    .000000    .031554   -.002341
   48  MN   YYX    .000000    .056859   -.056752    .000000    .000000
   49  MN   YYZ   -.005289    .000000    .000000    .031554    .002341
   50  MN   ZZX    .000000    .055123   -.055019    .000000    .000000
   51  MN   ZZY    .000000    .055019    .055123    .000000    .000000
   52  MN   XYZ    .000000    .000000    .000000    .000000    .000000
   53  O   2  S   -.151124    .000000    .000000   -.045890    .000000
   54  O   2  S  -1.452388    .000000    .000000   -.567111    .000000
   55  O   2  S   9.760916    .000000    .000000   3.404524    .000000
   56  O   2  X    .000000   -.021315    .021274    .000000    .000000
   57  O   2  Y    .000000   -.021274   -.021315    .000000    .000000
   58  O   2  Z   -.178937    .000000    .000000   -.030393    .000000
   59  O   2  X    .000000    .064153   -.064032    .000000    .000000
   60  O   2  Y    .000000    .064032    .064153    .000000    .000000
   61  O   2  Z   -.695568    .000000    .000000   -.194670    .000000
   62  O   2  X    .000000    .139932   -.139668    .000000    .000000
   63  O   2  Y    .000000    .139668    .139932    .000000    .000000
   64  O   2  Z  -2.240056    .000000    .000000   -.824972    .000000
   65  O   2 XX    .012235    .000000    .000000    .005331    .013429
   66  O   2 YY    .012235    .000000    .000000    .005331   -.013429
   67  O   2 ZZ    .013738    .000000    .000000   -.007680    .000000
   68  O   2 XY    .000000    .000000    .000000    .000000    .000000
   69  O   2 XZ    .000000   -.007873    .007858    .000000    .000000
   70  O   2 YZ    .000000   -.007858   -.007873    .000000    .000000

                     36         37         38         39         40
                     .8781      .9307      .9394      .9394     1.1880
                     A          A          A          A          A   
    1  MN  1  S    .000000    .138751    .000000    .000000   -.036305
    2  MN  1  S    .000000    .135328    .000000    .000000   -.020046
    3  MN  1  S    .000000   -.483030    .000000    .000000   -.044498
    4  MN  1  S    .000000  -1.758978    .000000    .000000   -.432360
    5  MN  1  S    .000000   7.440768    .000000    .000000   3.471723
    6  MN  1  S    .000000    .076570    .000000    .000000    .406578
    7  MN  1  X    .000000    .000000   -.040316   -.040361    .000000
    8  MN  1  Y    .000000    .000000   -.040361    .040316    .000000
    9  MN  1  Z    .000000    .122097    .000000    .000000   -.072927
   10  MN  1  X    .000000    .000000   -.017314   -.017333    .000000
   11  MN  1  Y    .000000    .000000   -.017333    .017314    .000000
   12  MN  1  Z    .000000    .089811    .000000    .000000   -.026594
   13  MN  1  X    .000000    .000000   -.078217   -.078304    .000000
   14  MN  1  Y    .000000    .000000   -.078304    .078217    .000000
   15  MN  1  Z    .000000    .909259    .000000    .000000   -.568900
   16  MN  1  X    .000000    .000000    .296890    .297222    .000000
   17  MN  1  Y    .000000    .000000    .297222   -.296890    .000000
   18  MN  1  Z    .000000  -2.730436    .000000    .000000   1.733208
   19  MN  1  X    .000000    .000000   -.275401   -.275708    .000000
   20  MN  1  Y    .000000    .000000   -.275708    .275401    .000000
   21  MN  1  Z    .000000   4.831440    .000000    .000000   1.767309
   22  MN  1  X    .000000    .000000   -.096548   -.096656    .000000
   23  MN  1  Y    .000000    .000000   -.096656    .096548    .000000
   24  MN  1  Z    .000000   -.622355    .000000    .000000    .103567
   25  MN  1 XX    .000000    .150426    .000000    .000000    .255818
   26  MN  1 YY    .000000    .150426    .000000    .000000    .255818
   27  MN  1 ZZ    .000000   -.284812    .000000    .000000   -.517448
   28  MN  1 XY   -.627011    .000000    .000000    .000000    .000000
   29  MN  1 XZ    .000000    .000000   -.425730   -.426205    .000000
   30  MN  1 YZ    .000000    .000000   -.426205    .425730    .000000
   31  MN  1 XX    .000000  -1.242834    .000000    .000000   -.854346
   32  MN  1 YY    .000000  -1.242834    .000000    .000000   -.854346
   33  MN  1 ZZ    .000000   -.369263    .000000    .000000   2.020084
   34  MN  1 XY   1.231685    .000000    .000000    .000000    .000000
   35  MN  1 XZ    .000000    .000000    .883413    .884399    .000000
   36  MN  1 YZ    .000000    .000000    .884399   -.883413    .000000
   37  MN  1 XX    .000000   -.334883    .000000    .000000   -.123253
   38  MN  1 YY    .000000   -.334883    .000000    .000000   -.123253
   39  MN  1 ZZ    .000000    .444961    .000000    .000000    .031551
   40  MN  1 XY   -.528340    .000000    .000000    .000000    .000000
   41  MN  1 XZ    .000000    .000000   -.519357   -.519937    .000000
   42  MN  1 YZ    .000000    .000000   -.519937    .519357    .000000
   43  MN   XXX    .000000    .000000    .017112    .017132    .000000
   44  MN   YYY    .000000    .000000    .017132   -.017112    .000000
   45  MN   ZZZ    .000000   -.157040    .000000    .000000    .056819
   46  MN   XXY    .000000    .000000    .007661   -.007653    .000000
   47  MN   XXZ    .000000   -.073761    .000000    .000000    .064012
   48  MN   YYX    .000000    .000000    .007653    .007661    .000000
   49  MN   YYZ    .000000   -.073761    .000000    .000000    .064012
   50  MN   ZZX    .000000    .000000    .003194    .003198    .000000
   51  MN   ZZY    .000000    .000000    .003198   -.003194    .000000
   52  MN   XYZ   -.002703    .000000    .000000    .000000    .000000
   53  O   2  S    .000000    .204224    .000000    .000000   -.133575
   54  O   2  S    .000000    .109330    .000000    .000000   -.881815
   55  O   2  S    .000000  -4.683637    .000000    .000000  -3.303710
   56  O   2  X    .000000    .000000   -.218980   -.219224    .000000
   57  O   2  Y    .000000    .000000   -.219224    .218980    .000000
   58  O   2  Z    .000000   -.165308    .000000    .000000    .100094
   59  O   2  X    .000000    .000000   -.054156   -.054216    .000000
   60  O   2  Y    .000000    .000000   -.054216    .054156    .000000
   61  O   2  Z    .000000   -.097201    .000000    .000000   2.018827
   62  O   2  X    .000000    .000000    .403820    .404271    .000000
   63  O   2  Y    .000000    .000000    .404271   -.403820    .000000
   64  O   2  Z    .000000   1.878993    .000000    .000000    .585938
   65  O   2 XX    .000000    .011694    .000000    .000000    .002134
   66  O   2 YY    .000000    .011694    .000000    .000000    .002134
   67  O   2 ZZ    .000000   -.009681    .000000    .000000   -.074833
   68  O   2 XY    .015507    .000000    .000000    .000000    .000000
   69  O   2 XZ    .000000    .000000   -.018628   -.018649    .000000
   70  O   2 YZ    .000000    .000000   -.018649    .018628    .000000

                     41         42         43         44         45
                    1.4350     1.4350     1.5189     1.9727     2.6469
                     A          A          A          A          A   
    1  MN  1  S    .000000    .000000   -.071440   -.155700    .000000
    2  MN  1  S    .000000    .000000    .006009    .478245    .000000
    3  MN  1  S    .000000    .000000   -.634877  -6.325544    .000000
    4  MN  1  S    .000000    .000000    .899560   5.666159    .000000
    5  MN  1  S    .000000    .000000   -.964361   8.233500    .000000
    6  MN  1  S    .000000    .000000   -.678120   5.483912    .000000
    7  MN  1  X   -.005993    .005985    .000000    .000000    .000000
    8  MN  1  Y   -.005985   -.005993    .000000    .000000    .000000
    9  MN  1  Z    .000000    .000000   -.087884    .082891    .000000
   10  MN  1  X    .002354   -.002351    .000000    .000000    .000000
   11  MN  1  Y    .002351    .002354    .000000    .000000    .000000
   12  MN  1  Z    .000000    .000000   -.048631    .014974    .000000
   13  MN  1  X    .068587   -.068491    .000000    .000000    .000000
   14  MN  1  Y    .068491    .068587    .000000    .000000    .000000
   15  MN  1  Z    .000000    .000000    .045242   -.051767    .000001
   16  MN  1  X   -.156270    .156052    .000000    .000000    .000000
   17  MN  1  Y   -.156052   -.156270    .000000    .000000    .000000
   18  MN  1  Z    .000000    .000000   -.334261   -.296479   -.000001
   19  MN  1  X    .051287   -.051215    .000000    .000000    .000000
   20  MN  1  Y    .051215    .051287    .000000    .000000    .000000
   21  MN  1  Z    .000000    .000000  -1.590932    .340869    .000000
   22  MN  1  X    .293774   -.293363    .000000    .000000    .000000
   23  MN  1  Y    .293363    .293774    .000000    .000000    .000000
   24  MN  1  Z    .000000    .000000   -.440889    .024191    .000000
   25  MN  1 XX    .000000    .000000    .058899   -.018848    .000000
   26  MN  1 YY    .000000    .000000    .058899   -.018848    .000000
   27  MN  1 ZZ    .000000    .000000   -.126970    .023401    .000000
   28  MN  1 XY    .000000    .000000    .000000    .000000    .025186
   29  MN  1 XZ    .054493   -.054416    .000000    .000000    .000000
   30  MN  1 YZ    .054416    .054492    .000000    .000000    .000000
   31  MN  1 XX    .000000    .000000   -.475880  -4.994784    .000000
   32  MN  1 YY    .000000    .000000   -.475880  -4.994784    .000000
   33  MN  1 ZZ    .000000    .000000   -.639005  -5.251192    .000000
   34  MN  1 XY    .000000    .000000    .000000    .000000   -.067210
   35  MN  1 XZ   -.283812    .283415    .000000    .000000    .000000
   36  MN  1 YZ   -.283415   -.283812    .000000    .000000    .000000
   37  MN  1 XX    .000000    .000000    .316711  -2.575990    .000000
   38  MN  1 YY    .000000    .000000    .316711  -2.575990    .000000
   39  MN  1 ZZ    .000000    .000000   -.864052  -2.398873    .000000
   40  MN  1 XY    .000000    .000000    .000000    .000000   -.018514
   41  MN  1 XZ    .242593   -.242254    .000000    .000000    .000000
   42  MN  1 YZ    .242254    .242593    .000000    .000000    .000000
   43  MN   XXX   -.019135    .019108    .000000    .000000    .000000
   44  MN   YYY   -.019108   -.019135    .000000    .000000    .000000
   45  MN   ZZZ    .000000    .000000   -.004920    .038601    .000000
   46  MN   XXY   -.008546   -.008557    .000000    .000000    .000000
   47  MN   XXZ    .000000    .000000    .010967   -.007972    .000000
   48  MN   YYX   -.008557    .008546    .000000    .000000    .000000
   49  MN   YYZ    .000000    .000000    .010967   -.007972    .000000
   50  MN   ZZX    .007390   -.007380    .000000    .000000    .000000
   51  MN   ZZY    .007380    .007390    .000000    .000000    .000000
   52  MN   XYZ    .000000    .000000    .000000    .000000    .011430
   53  O   2  S    .000000    .000000   -.101749   -.110209    .000000
   54  O   2  S    .000000    .000000    .047241    .369129    .000000
   55  O   2  S    .000000    .000000   3.165938   -.552601    .000000
   56  O   2  X   -.922161    .920871    .000000    .000000    .000000
   57  O   2  Y   -.920871   -.922162    .000000    .000000    .000000
   58  O   2  Z    .000000    .000000   1.346255   -.257237    .000000
   59  O   2  X   1.569600  -1.567404    .000000    .000000    .000000
   60  O   2  Y   1.567404   1.569600    .000000    .000000    .000000
   61  O   2  Z    .000000    .000000  -2.735438    .016186    .000000
   62  O   2  X   -.852769    .851576    .000000    .000000    .000000
   63  O   2  Y   -.851576   -.852769    .000000    .000000    .000000
   64  O   2  Z    .000000    .000000    .281683    .169819    .000000
   65  O   2 XX    .000000    .000000    .026164   -.037255    .000000
   66  O   2 YY    .000000    .000000    .026164   -.037255    .000000
   67  O   2 ZZ    .000000    .000000   -.050130    .120244    .000000
   68  O   2 XY    .000000    .000000    .000000    .000000   1.001456
   69  O   2 XZ    .023951   -.023917    .000000    .000000    .000000
   70  O   2 YZ    .023917    .023951    .000000    .000000    .000000

                     46         47         48         49         50
                    2.6469     2.6662     2.7281     2.7281     2.8635
                     A          A          A          A          A   
    1  MN  1  S    .000000    .023115    .000000    .000000    .000000
    2  MN  1  S    .000000   -.001323    .000000    .000000    .000000
    3  MN  1  S    .000000    .125312    .000000    .000000    .000000
    4  MN  1  S    .000000   -.546412    .000000    .000000    .000000
    5  MN  1  S    .000000    .024305    .000000    .000000    .000000
    6  MN  1  S    .000000   -.107116    .000000    .000000    .000000
    7  MN  1  X    .000000    .000000    .326564   -.326736   -.807393
    8  MN  1  Y    .000000    .000000   -.326736   -.326564   -.807670
    9  MN  1  Z    .000000   -.794628    .000000    .000000    .000000
   10  MN  1  X    .000000    .000000    .110753   -.110811   -.274024
   11  MN  1  Y    .000000    .000000   -.110811   -.110753   -.274118
   12  MN  1  Z    .000000   -.279907    .000000    .000000    .000000
   13  MN  1  X    .000000    .000000   -.949141    .949639   2.683411
   14  MN  1  Y    .000000    .000000    .949639    .949141   2.684331
   15  MN  1  Z    .000000   2.957081    .000000    .000000    .000000
   16  MN  1  X    .000000    .000000    .493746   -.494005  -1.808146
   17  MN  1  Y    .000000    .000000   -.494005   -.493746  -1.808766
   18  MN  1  Z    .000000  -2.702572    .000000    .000000    .000000
   19  MN  1  X    .000000    .000000   -.321631    .321800    .968277
   20  MN  1  Y    .000000    .000000    .321800    .321631    .968609
   21  MN  1  Z    .000000   1.017648    .000000    .000000    .000000
   22  MN  1  X    .000000    .000000    .099443   -.099495   -.252042
   23  MN  1  Y    .000000    .000000   -.099495   -.099443   -.252129
   24  MN  1  Z    .000000   -.512988    .000000    .000000    .000000
   25  MN  1 XX   -.021812    .001336    .000000    .000000    .000000
   26  MN  1 YY    .021812    .001336    .000000    .000000    .000000
   27  MN  1 ZZ    .000000    .001831    .000000    .000000    .000000
   28  MN  1 XY    .000000    .000000    .000000    .000000    .000000
   29  MN  1 XZ    .000000    .000000    .043598   -.043621    .034325
   30  MN  1 YZ    .000000    .000000   -.043621   -.043598    .034337
   31  MN  1 XX    .058205    .041869    .000000    .000000    .000000
   32  MN  1 YY   -.058205    .041869    .000000    .000000    .000000
   33  MN  1 ZZ    .000000   -.604837    .000000    .000000    .000000
   34  MN  1 XY    .000000    .000000    .000000    .000000    .000000
   35  MN  1 XZ    .000000    .000000   -.209240    .209349   -.121400
   36  MN  1 YZ    .000000    .000000    .209349    .209240   -.121442
   37  MN  1 XX    .016034   -.071899    .000000    .000000    .000000
   38  MN  1 YY   -.016034   -.071899    .000000    .000000    .000000
   39  MN  1 ZZ    .000000   -.040925    .000000    .000000    .000000
   40  MN  1 XY    .000000    .000000    .000000    .000000    .000000
   41  MN  1 XZ    .000000    .000000    .034541   -.034560    .076724
   42  MN  1 YZ    .000000    .000000   -.034560   -.034541    .076750
   43  MN   XXX    .000000    .000000    .122527   -.122591   -.457415
   44  MN   YYY    .000000    .000000   -.122591   -.122527   -.457572
   45  MN   ZZZ    .000000   -.388532    .000000    .000000    .000000
   46  MN   XXY    .000000    .000000   -.054824   -.054796   -.204632
   47  MN   XXZ   -.009899   -.290820    .000000    .000000    .000000
   48  MN   YYX    .000000    .000000    .054796   -.054824   -.204562
   49  MN   YYZ    .009899   -.290820    .000000    .000000    .000000
   50  MN   ZZX    .000000    .000000    .126878   -.126944   -.175725
   51  MN   ZZY    .000000    .000000   -.126944   -.126878   -.175785
   52  MN   XYZ    .000000    .000000    .000000    .000000    .000000
   53  O   2  S    .000000    .822227    .000000    .000000    .000000
   54  O   2  S    .000000   -.821000    .000000    .000000    .000000
   55  O   2  S    .000000   1.010472    .000000    .000000    .000000
   56  O   2  X    .000000    .000000   -.065564    .065599   -.003293
   57  O   2  Y    .000000    .000000    .065599    .065564   -.003294
   58  O   2  Z    .000000    .020488    .000000    .000000    .000000
   59  O   2  X    .000000    .000000    .135586   -.135657    .085842
   60  O   2  Y    .000000    .000000   -.135657   -.135586    .085872
   61  O   2  Z    .000000   -.858081    .000000    .000000    .000000
   62  O   2  X    .000000    .000000    .006109   -.006112   -.107928
   63  O   2  Y    .000000    .000000   -.006112   -.006109   -.107965
   64  O   2  Z    .000000    .012703    .000000    .000000    .000000
   65  O   2 XX   -.867286   -.357005    .000000    .000000    .000000
   66  O   2 YY    .867286   -.357005    .000000    .000000    .000000
   67  O   2 ZZ    .000000    .815046    .000000    .000000    .000000
   68  O   2 XY    .000000    .000000    .000000    .000000    .000000
   69  O   2 XZ    .000000    .000000   -.663816    .664165   -.296507
   70  O   2 YZ    .000000    .000000    .664165    .663816   -.296608

                     51         52         53         54         55
                    2.8635     3.1799     3.4629     4.5745     4.5745
                     A          A          A          A          A   
    1  MN  1  S    .000000    .026854    .083159    .000000    .000000
    2  MN  1  S    .000000    .001369    .081176    .000000    .000000
    3  MN  1  S    .000000    .380068    .326866    .000000    .000000
    4  MN  1  S    .000000   -.489187   -.663026    .000000    .000000
    5  MN  1  S    .000000  -3.552042    .683401    .000000    .000000
    6  MN  1  S    .000000   1.551422  -1.238304    .000000    .000000
    7  MN  1  X   -.807670    .000000    .000000    .000000    .000000
    8  MN  1  Y    .807393    .000000    .000000    .000000    .000000
    9  MN  1  Z    .000000    .840990    .327992    .000000    .000000
   10  MN  1  X   -.274118    .000000    .000000    .000000    .000000
   11  MN  1  Y    .274024    .000000    .000000    .000000    .000000
   12  MN  1  Z    .000000    .402557    .113739    .000000    .000000
   13  MN  1  X   2.684331    .000000    .000000    .000000    .000000
   14  MN  1  Y  -2.683411    .000000    .000000    .000000    .000000
   15  MN  1  Z    .000000  -3.073663   -.697466    .000000    .000000
   16  MN  1  X  -1.808766    .000000    .000000    .000000    .000000
   17  MN  1  Y   1.808146    .000000    .000000    .000000    .000000
   18  MN  1  Z    .000000   2.391957   -.533714    .000000    .000000
   19  MN  1  X    .968609    .000000    .000000    .000000    .000000
   20  MN  1  Y   -.968277    .000000    .000000    .000000    .000000
   21  MN  1  Z    .000000  -2.900602    .441391    .000000    .000000
   22  MN  1  X   -.252129    .000000    .000000    .000000    .000000
   23  MN  1  Y    .252042    .000000    .000000    .000000    .000000
   24  MN  1  Z    .000000   -.129262    .338571    .000000    .000000
   25  MN  1 XX    .000000    .018791    .022306    .000000    .000000
   26  MN  1 YY    .000000    .018791    .022306    .000000    .000000
   27  MN  1 ZZ    .000000   -.033056   -.031457    .000000    .000000
   28  MN  1 XY    .000000    .000000    .000000    .000000    .000000
   29  MN  1 XZ    .034337    .000000    .000000    .000000    .000000
   30  MN  1 YZ   -.034325    .000000    .000000    .000000    .000000
   31  MN  1 XX    .000000    .285086    .478827    .000000    .000000
   32  MN  1 YY    .000000    .285086    .478827    .000000    .000000
   33  MN  1 ZZ    .000000    .396335   -.306729    .000000    .000000
   34  MN  1 XY    .000000    .000000    .000000    .000000    .000000
   35  MN  1 XZ   -.121442    .000000    .000000    .000000    .000000
   36  MN  1 YZ    .121400    .000000    .000000    .000000    .000000
   37  MN  1 XX    .000000   -.540139    .524527    .000000    .000000
   38  MN  1 YY    .000000   -.540139    .524527    .000000    .000000
   39  MN  1 ZZ    .000000  -1.431499    .904314    .000000    .000000
   40  MN  1 XY    .000000    .000000    .000000    .000000    .000000
   41  MN  1 XZ    .076750    .000000    .000000    .000000    .000000
   42  MN  1 YZ   -.076724    .000000    .000000    .000000    .000000
   43  MN   XXX   -.457572    .000000    .000000    .000000   -.790569
   44  MN   YYY    .457415    .000000    .000000   -.790569    .000000
   45  MN   ZZZ    .000000    .474881    .369074    .000000    .000000
   46  MN   XXY    .204562    .000000    .000000   1.060660    .000000
   47  MN   XXZ    .000000    .191966   -.131385    .000000    .000000
   48  MN   YYX   -.204632    .000000    .000000    .000000   1.060660
   49  MN   YYZ    .000000    .191966   -.131385    .000000    .000000
   50  MN   ZZX   -.175785    .000000    .000000    .000000    .000000
   51  MN   ZZY    .175725    .000000    .000000    .000000    .000000
   52  MN   XYZ    .000000    .000000    .000000    .000000    .000000
   53  O   2  S    .000000   2.091938  -3.587446    .000000    .000000
   54  O   2  S    .000000  -2.842805   4.077503    .000000    .000000
   55  O   2  S    .000000   4.484856  -2.056705    .000000    .000000
   56  O   2  X   -.003294    .000000    .000000    .000000    .000000
   57  O   2  Y    .003293    .000000    .000000    .000000    .000000
   58  O   2  Z    .000000    .249338    .128221    .000000    .000000
   59  O   2  X    .085872    .000000    .000000    .000000    .000000
   60  O   2  Y   -.085842    .000000    .000000    .000000    .000000
   61  O   2  Z    .000000   -.223329   -.896845    .000000    .000000
   62  O   2  X   -.107965    .000000    .000000    .000000    .000000
   63  O   2  Y    .107928    .000000    .000000    .000000    .000000
   64  O   2  Z    .000000  -1.179316    .638862    .000000    .000000
   65  O   2 XX    .000000   -.475210    .140193    .000000    .000000
   66  O   2 YY    .000000   -.475210    .140193    .000000    .000000
   67  O   2 ZZ    .000000    .293387    .934022    .000000    .000000
   68  O   2 XY    .000000    .000000    .000000    .000000    .000000
   69  O   2 XZ   -.296608    .000000    .000000    .000000    .000000
   70  O   2 YZ    .296507    .000000    .000000    .000000    .000000

                     56         57         58         59         60
                    4.5805     4.5805     4.6265     4.6265     4.8593
[...]
   54  O   2  S    .000000    .000000    .000000    .000000  -1.048764
   55  O   2  S    .000000    .000000    .000000    .000000   -.216112
   56  O   2  X    .000000    .000000    .030126   -.030103    .000000
   57  O   2  Y    .000000    .000000    .030103    .030126    .000000
   58  O   2  Z    .000000    .000000    .000000    .000000    .003860
   59  O   2  X    .000000    .000000   -.093067    .092997    .000000
   60  O   2  Y    .000000    .000000   -.092997   -.093067    .000000
   61  O   2  Z    .000000    .000000    .000000    .000000    .679271
   62  O   2  X    .000000    .000000    .045666   -.045632    .000000
   63  O   2  Y    .000000    .000000    .045632    .045666    .000000
   64  O   2  Z    .000000    .000000    .000000    .000000   -.137537
   65  O   2 XX    .012374    .000000    .000000    .000000   -.061004
   66  O   2 YY   -.012374    .000000    .000000    .000000   -.061004
   67  O   2 ZZ    .000000    .000000    .000000    .000000   -.529195
   68  O   2 XY    .000000   -.014288    .000000    .000000    .000000
   69  O   2 XZ    .000000    .000000    .076539   -.076481    .000000
   70  O   2 YZ    .000000    .000000    .076481    .076539    .000000

                     61         62         63         64         65
                    5.2610     6.5249     7.9600     7.9600     8.1460
                     A          A          A          A          A   
    1  MN  1  S  -1.377545   -.038597    .000000    .000000    .030422
    2  MN  1  S  -3.785347   -.149826    .000000    .000000    .143507
    3  MN  1  S  13.411251    .666644    .000000    .000000   -.570800
    4  MN  1  S -10.675891   -.741426    .000000    .000000    .445888
    5  MN  1  S  -5.296578   2.450702    .000000    .000000   1.803232
    6  MN  1  S  -3.121803  -1.891218    .000000    .000000   -.774463
    7  MN  1  X    .000000    .000000   -.236530   -.235724    .000000
    8  MN  1  Y    .000000    .000000    .235724   -.236530    .000000
    9  MN  1  Z   -.009978    .061755    .000000    .000000   -.255597
   10  MN  1  X    .000000    .000000    .808875    .806119    .000000
   11  MN  1  Y    .000000    .000000   -.806119    .808875    .000000
   12  MN  1  Z    .086562   -.284081    .000000    .000000    .967757
   13  MN  1  X    .000000    .000000   2.927702   2.917729    .000000
   14  MN  1  Y    .000000    .000000  -2.917729   2.927702    .000000
   15  MN  1  Z    .060974    .018630    .000000    .000000   4.455773
   16  MN  1  X    .000000    .000000  -1.118884  -1.115072    .000000
   17  MN  1  Y    .000000    .000000   1.115072  -1.118884    .000000
   18  MN  1  Z   -.155121  -1.180224    .000000    .000000  -2.071084
   19  MN  1  X    .000000    .000000    .541678    .539833    .000000
   20  MN  1  Y    .000000    .000000   -.539833    .541678    .000000
   21  MN  1  Z   -.146506   1.600313    .000000    .000000   1.714876
   22  MN  1  X    .000000    .000000   -.143903   -.143413    .000000
   23  MN  1  Y    .000000    .000000    .143413   -.143903    .000000
   24  MN  1  Z   -.005958    .569543    .000000    .000000   -.078079
   25  MN  1 XX   -.118023    .002099    .000000    .000000    .000472
   26  MN  1 YY   -.118023    .002099    .000000    .000000    .000472
   27  MN  1 ZZ   -.110915   -.022102    .000000    .000000    .010297
   28  MN  1 XY    .000000    .000000    .000000    .000000    .000000
   29  MN  1 XZ    .000000    .000000    .001490    .001485    .000000
   30  MN  1 YZ    .000000    .000000   -.001485    .001490    .000000
   31  MN  1 XX   4.534157    .386581    .000000    .000000   -.232296
   32  MN  1 YY   4.534157    .386581    .000000    .000000   -.232296
   33  MN  1 ZZ   4.344653   -.305501    .000000    .000000   -.342467
   34  MN  1 XY    .000000    .000000    .000000    .000000    .000000
   35  MN  1 XZ    .000000    .000000   -.009326   -.009294    .000000
   36  MN  1 YZ    .000000    .000000    .009294   -.009326    .000000
   37  MN  1 XX   1.464843    .816734    .000000    .000000    .249671
   38  MN  1 YY   1.464843    .816734    .000000    .000000    .249671
   39  MN  1 ZZ   1.439872   1.577621    .000000    .000000    .660372
   40  MN  1 XY    .000000    .000000    .000000    .000000    .000000
   41  MN  1 XZ    .000000    .000000    .026548    .026457    .000000
   42  MN  1 YZ    .000000    .000000   -.026457    .026548    .000000
   43  MN   XXX    .000000    .000000  -1.947309  -1.940675    .000000
   44  MN   YYY    .000000    .000000   1.940675  -1.947309    .000000
   45  MN   ZZZ   -.230688    .168058    .000000    .000000  -2.802942
   46  MN   XXY    .000000    .000000    .867896   -.870863    .000000
   47  MN   XXZ    .076818    .176871    .000000    .000000  -1.250253
   48  MN   YYX    .000000    .000000   -.870863   -.867896    .000000
   49  MN   YYZ    .076818    .176871    .000000    .000000  -1.250253
   50  MN   ZZX    .000000    .000000   -.873465   -.870490    .000000
   51  MN   ZZY    .000000    .000000    .870490   -.873465    .000000
   52  MN   XYZ    .000000    .000000    .000000    .000000    .000000
   53  O   2  S   -.414678  -1.296818    .000000    .000000   -.132812
   54  O   2  S    .213754   6.677758    .000000    .000000   1.231847
   55  O   2  S    .315980  -5.119698    .000000    .000000  -2.030641
   56  O   2  X    .000000    .000000    .006269    .006248    .000000
   57  O   2  Y    .000000    .000000   -.006248    .006269    .000000
   58  O   2  Z   -.021892    .007880    .000000    .000000   -.040104
   59  O   2  X    .000000    .000000    .014228    .014179    .000000
   60  O   2  Y    .000000    .000000   -.014179    .014228    .000000
   61  O   2  Z   -.140295   -.715202    .000000    .000000   -.108223
   62  O   2  X    .000000    .000000   -.050287   -.050116    .000000
   63  O   2  Y    .000000    .000000    .050116   -.050287    .000000
   64  O   2  Z   -.096263   1.286452    .000000    .000000    .597037
   65  O   2 XX    .038041  -1.532008    .000000    .000000   -.189644
   66  O   2 YY    .038041  -1.532008    .000000    .000000   -.189644
   67  O   2 ZZ    .302579  -1.173265    .000000    .000000   -.318737
   68  O   2 XY    .000000    .000000    .000000    .000000    .000000
   69  O   2 XZ    .000000    .000000   -.008809   -.008779    .000000
   70  O   2 YZ    .000000    .000000    .008779   -.008809    .000000

                     66         67         68         69         70
                   16.7053    51.4953    51.4953    52.7141    54.1657
                     A          A          A          A          A   
    1  MN  1  S  -3.872545    .000000    .000000    .474647   4.033437
    2  MN  1  S    .619942    .000000    .000000    .168055   1.775529
    3  MN  1  S   8.543480    .000000    .000000    .582417   1.802511
    4  MN  1  S  -4.001433    .000000    .000000   1.094091  10.508242
    5  MN  1  S  -1.933447    .000000    .000000  -1.120621   2.893478
    6  MN  1  S  -1.193991    .000000    .000000    .924270   1.405059
    7  MN  1  X    .000000  26.698585 -26.613009    .000000    .000000
    8  MN  1  Y    .000000  26.613009  26.698585   -.000001    .000000
    9  MN  1  Z   -.061576    .000000    .000001  37.889813  -4.988137
   10  MN  1  X    .000000 -26.499326  26.414389    .000000    .000000
   11  MN  1  Y    .000000 -26.414389 -26.499326    .000001    .000000
   12  MN  1  Z    .061473    .000000   -.000001 -37.566431   4.942717
   13  MN  1  X    .000000  -5.110574   5.094194    .000000    .000000
   14  MN  1  Y    .000000  -5.094194  -5.110574    .000000    .000000
   15  MN  1  Z   -.030759    .000000    .000000  -7.586378   1.029208
   16  MN  1  X    .000000   1.324339  -1.320094    .000000    .000000
   17  MN  1  Y    .000000   1.320094   1.324339    .000000    .000000
   18  MN  1  Z    .009935    .000000    .000000   2.275762   -.319935
   19  MN  1  X    .000000   -.612658    .610694    .000000    .000000
   20  MN  1  Y    .000000   -.610694   -.612658    .000000    .000000
   21  MN  1  Z   -.050579    .000000    .000000  -1.662586    .271296
   22  MN  1  X    .000000    .162805   -.162283    .000000    .000000
   23  MN  1  Y    .000000    .162283    .162805    .000000    .000000
   24  MN  1  Z    .005857    .000000    .000000    .165596   -.029646
   25  MN  1 XX   -.931674    .000000    .000000   -.869818  -6.783943
   26  MN  1 YY   -.931674    .000000    .000000   -.869818  -6.783943
   27  MN  1 ZZ   -.933055    .000000    .000000   -.882131  -6.781670
   28  MN  1 XY    .000000    .000000    .000000    .000000    .000000
   29  MN  1 XZ    .000000   -.002254    .002246    .000000    .000000
   30  MN  1 YZ    .000000   -.002246   -.002254    .000000    .000000
   31  MN  1 XX   1.675595    .000000    .000000   -.242909  -3.078930
   32  MN  1 YY   1.675595    .000000    .000000   -.242909  -3.078930
   33  MN  1 ZZ   1.658196    .000000    .000000   -.173340  -3.079065
   34  MN  1 XY    .000000    .000000    .000000    .000000    .000000
   35  MN  1 XZ    .000000    .010067   -.010035    .000000    .000000
   36  MN  1 YZ    .000000    .010035    .010067    .000000    .000000
   37  MN  1 XX    .557548    .000000    .000000   -.316503   -.682017
   38  MN  1 YY    .557548    .000000    .000000   -.316503   -.682017
   39  MN  1 ZZ    .551818    .000000    .000000   -.661750   -.632615
   40  MN  1 XY    .000000    .000000    .000000    .000000    .000000
   41  MN  1 XZ    .000000   -.030063    .029967    .000000    .000000
   42  MN  1 YZ    .000000   -.029967   -.030063    .000000    .000000
   43  MN   XXX    .000000   2.620001  -2.611603    .000000    .000000
   44  MN   YYY    .000000   2.611603   2.620001    .000000    .000000
   45  MN   ZZZ    .012842    .000000    .000000   3.825652   -.514988
   46  MN   XXY    .000000   1.167945   1.171700    .000000    .000000
   47  MN   XXZ    .009319    .000000    .000000   1.709410   -.231912
   48  MN   YYX    .000000   1.171700  -1.167945    .000000    .000000
   49  MN   YYZ    .009319    .000000    .000000   1.709410   -.231912
   50  MN   ZZX    .000000   1.172323  -1.168565    .000000    .000000
   51  MN   ZZY    .000000   1.168565   1.172323    .000000    .000000
   52  MN   XYZ    .000000    .000000    .000000    .000000    .000000
   53  O   2  S   -.052067    .000000    .000000    .048068    .026551
   54  O   2  S    .031301    .000000    .000000   -.576443    .062488
   55  O   2  S    .072753    .000000    .000000   1.519457   -.273047
   56  O   2  X    .000000   -.005495    .005477    .000000    .000000
   57  O   2  Y    .000000   -.005477   -.005495    .000000    .000000
   58  O   2  Z   -.008143    .000000    .000000    .023042    .015992
   59  O   2  X    .000000   -.016572    .016519    .000000    .000000
   60  O   2  Y    .000000   -.016519   -.016572    .000000    .000000
   61  O   2  Z    .002977    .000000    .000000    .088189   -.037293
   62  O   2  X    .000000    .056981   -.056798    .000000    .000000
   63  O   2  Y    .000000    .056798    .056981    .000000    .000000
   64  O   2  Z   -.042404    .000000    .000000   -.486491    .115883
   65  O   2 XX   -.007303    .000000    .000000    .032568    .003910
   66  O   2 YY   -.007303    .000000    .000000    .032568    .003910
   67  O   2 ZZ    .041497    .000000    .000000    .149332   -.050287
   68  O   2 XY    .000000    .000000    .000000    .000000    .000000
   69  O   2 XZ    .000000    .007387   -.007363    .000000    .000000
   70  O   2 YZ    .000000    .007363    .007387    .000000    .000000
 ...... END OF ROHF CALCULATION ......
 STEP CPU TIME =    74.72 TOTAL CPU TIME =       75.1 (    1.3 MIN)
 TOTAL WALL CLOCK TIME=       76.8 SECONDS, CPU UTILIZATION IS  97.73%

          -----------------
          ENERGY COMPONENTS
          -----------------

         WAVEFUNCTION NORMALIZATION =       1.0000000000

                ONE ELECTRON ENERGY =    -262.5948082346
                TWO ELECTRON ENERGY =     116.1150509818
           NUCLEAR REPULSION ENERGY =      27.4478224518
                                      ------------------
                       TOTAL ENERGY =    -119.0319348009

 ELECTRON-ELECTRON POTENTIAL ENERGY =     116.1150509818
  NUCLEUS-ELECTRON POTENTIAL ENERGY =    -330.7889032345
   NUCLEUS-NUCLEUS POTENTIAL ENERGY =      27.4478224518
                                      ------------------
             TOTAL POTENTIAL ENERGY =    -187.2260298009
               TOTAL KINETIC ENERGY =      68.1940949999
                 VIRIAL RATIO (V/T) =       2.7454874180

          ---------------------------------------
          MULLIKEN AND LOWDIN POPULATION ANALYSES
          ---------------------------------------

     MULLIKEN ATOMIC POPULATION IN EACH MOLECULAR ORBITAL

                      1          2          3          4          5

                  2.000000   2.000000   2.000000   2.000000   2.000000

    1             1.998031   1.967340   1.999017   1.999017    .048347
    2              .001969    .032660    .000983    .000983   1.951653

                      6          7          8          9         10

                  2.000000   2.000000   2.000000   1.000000   1.000000

    1              .244632    .244633    .575308    .999971    .999971
    2             1.755368   1.755367   1.424692    .000029    .000029

                     11         12         13

                  1.000000   1.000000   1.000000

    1              .975291    .966047    .966047
    2              .024709    .033953    .033953

     ATOMIC SPIN POPULATION (ALPHA MINUS BETA)
       ATOM         MULL.POP.                    LOW.POP.
    1 MN            4.907327                     4.899604
    2 O              .092673                      .100396

               ----- POPULATIONS IN EACH AO -----
                             MULLIKEN      LOWDIN
              1  MN  1  S     1.32082      .61525
              2  MN  1  S     -.02295      .28547
              3  MN  1  S      .58346      .38160
              4  MN  1  S      .22149      .17315
              5  MN  1  S      .35840      .13939
              6  MN  1  S      .02436      .06534
              7  MN  1  X     1.51869      .59192
              8  MN  1  Y     1.51869      .59192
              9  MN  1  Z     1.52518      .59457
             10  MN  1  X     -.04140      .53512
             11  MN  1  Y     -.04140      .53512
             12  MN  1  Z     -.04112      .53840
             13  MN  1  X      .48548      .34100
             14  MN  1  Y      .48548      .34100
             15  MN  1  Z      .47812      .33641
             16  MN  1  X      .11340      .12046
             17  MN  1  Y      .11340      .12046
             18  MN  1  Z      .12557      .12225
             19  MN  1  X      .06236      .07274
             20  MN  1  Y      .06236      .07274
             21  MN  1  Z     -.04138      .06277
             22  MN  1  X      .02230      .03219
             23  MN  1  Y      .02230      .03219
             24  MN  1  Z     -.00047      .03366
             25  MN  1 XX      .58493      .75306
             26  MN  1 YY      .58493      .75306
             27  MN  1 ZZ      .56369      .72994
             28  MN  1 XY      .87434      .84150
             29  MN  1 XZ      .90014      .86577
             30  MN  1 YZ      .90014      .86577
             31  MN  1 XX      .08650      .17183
             32  MN  1 YY      .08650      .17183
             33  MN  1 ZZ      .14001      .25897
             34  MN  1 XY      .12090      .15112
             35  MN  1 XZ      .15865      .19587
             36  MN  1 YZ      .15865      .19587
             37  MN  1 XX      .02287      .02985
             38  MN  1 YY      .02287      .02985
             39  MN  1 ZZ     -.02797      .03692
             40  MN  1 XY      .00471      .00731
             41  MN  1 XZ      .02238      .04017
             42  MN  1 YZ      .02238      .04017
             43  MN   XXX     -.01919      .22559
             44  MN   YYY     -.01919      .22559
             45  MN   ZZZ     -.01990      .22312
             46  MN   XXY     -.00640      .10706
             47  MN   XXZ     -.00581      .10743
             48  MN   YYX     -.00640      .10706
             49  MN   YYZ     -.00581      .10743
             50  MN   ZZX     -.00673      .10647
             51  MN   ZZY     -.00673      .10647
             52  MN   XYZ      .00002      .00002
             53  O   2  S     1.86273      .78642
             54  O   2  S     -.02328      .37287
             55  O   2  S      .16297      .11245
             56  O   2  X     1.60670     1.26761
             57  O   2  Y     1.60670     1.26761
             58  O   2  Z     1.34394     1.03803
             59  O   2  X      .11809      .38960
             60  O   2  Y      .11809      .38960
             61  O   2  Z      .02911      .31329
             62  O   2  X      .06331      .10589
             63  O   2  Y      .06331      .10589
             64  O   2  Z      .03335      .12715
             65  O   2 XX      .00378      .17256
             66  O   2 YY      .00378      .17256
             67  O   2 ZZ      .01933      .18308
             68  O   2 XY      .00003      .00005
             69  O   2 XZ      .00220      .00254
             70  O   2 YZ      .00220      .00254

          ----- MULLIKEN ATOMIC OVERLAP POPULATIONS -----
          (OFF-DIAGONAL ELEMENTS NEED TO BE MULTIPLIED BY 2)

             1           2

    1   13.6983402
    2     .2853106   6.7310386

          TOTAL MULLIKEN AND LOWDIN ATOMIC POPULATIONS
       ATOM         MULL.POP.    CHARGE          LOW.POP.     CHARGE
    1 MN           13.983651    1.016349        14.190254     .809746
    2 O             7.016349   -1.016349         6.809746    -.809746

          -------------------------------
          BOND ORDER AND VALENCE ANALYSIS     BOND ORDER THRESHOLD= .050
          -------------------------------

                   BOND                       BOND                       BOND
  ATOM PAIR DIST  ORDER      ATOM PAIR DIST  ORDER      ATOM PAIR DIST  ORDER
    1   2  1.735  1.525

                       TOTAL       BONDED        FREE
      ATOM            VALENCE     VALENCE     VALENCE
    1 MN                6.343       1.525       4.818
    2 O                 1.528       1.525        .003

          -----------------------------------------
          ATOMIC SPIN DENSITY AT THE NUCLEUS (A.U.)
          -----------------------------------------
                            SPIN DENS    ALPHA DENS     BETA DENS
    1  MN          15.0      .0041091        .15910        .15499
    2  O            6.0      .0000921        .03957        .03948

          ---------------------
          ELECTROSTATIC MOMENTS
          ---------------------

 POINT   1           X           Y           Z (BOHR)    CHARGE
                  .000000     .000000     .611687         .00 (A.U.)
         DX          DY          DZ         /D/  (DEBYE)
      .000000     .000000   -9.323846    9.323846
 ...... END OF PROPERTY EVALUATION ......
 STEP CPU TIME =      .06 TOTAL CPU TIME =       75.1 (    1.3 MIN)
 TOTAL WALL CLOCK TIME=       76.9 SECONDS, CPU UTILIZATION IS  97.74%
 100000 WORDS OF DYNAMIC MEMORY USED
ddikick: all processes have ended gracefully. 
unset echo
----- accounting info -----
Wed May 22 11:36:00 EDT 2002
Files used on the master node aldebaran.physics.ncsu.edu were:
-rw-rw-r--    1 lkwagner lkwagner    83185 May 22 11:34 /tmp/lkwagner/mno1i.F05
-rw-rw-r--    1 lkwagner lkwagner  1100168 May 22 11:36 /tmp/lkwagner/mno1i.F10
-rw-rw-r--    1 lkwagner lkwagner    82410 May 22 11:36 /tmp/lkwagner/mno1i.pun
0.120u 0.080s 1:17.21 0.2%	0+0k 0+0io 6133pf+0w
 EXECUTION OF GAMESS TERMINATED NORMALLY Wed May 22 11:36:00 2002

DATA SERVER STATS: TOTAL DISTRIBUTED MEMORY USED (MEMDDI)=       0 MWORDS.
FIRST DATA SERVER'S MAXIMUM MEMORY=             0 WORDS, CPU=      .0 SECONDS.

